
     Program PWSCF v.7.5 starts on  6Jul2026 at 21:59:21 

     This program is part of the open-source Quantum ESPRESSO suite
     for quantum simulation of materials; please cite
         "P. Giannozzi et al., J. Phys.:Condens. Matter 21 395502 (2009);
         "P. Giannozzi et al., J. Phys.:Condens. Matter 29 465901 (2017);
         "P. Giannozzi et al., J. Chem. Phys. 152 154105 (2020);
          URL http://www.quantum-espresso.org", 
     in publications or presentations arising from this work. More details at
     http://www.quantum-espresso.org/quote

     Parallel version (MPI & OpenMP), running on       8 processor cores
     Number of MPI processes:                 1
     Threads/MPI process:                     8

     MPI processes distributed on     1 nodes
     19686 MiB available memory on the printing compute node when the environment starts

     Reading input from pw.in

     Current dimensions of program PWSCF are:
     Max number of different atomic species (ntypx) = 10
     Max number of k-points (npk) =  40000
     Max angular momentum in pseudopotentials (lmaxx) =  4
     Message from routine setup:
     using ibrav=0 with symmetry is DISCOURAGED, use correct ibrav instead

     Subspace diagonalization in iterative solution of the eigenvalue problem:
     a serial algorithm will be used


     G-vector sticks info
     --------------------
     sticks:   dense  smooth     PW     G-vecs:    dense   smooth      PW
     Sum         399     399    159                 5017     5017    1253

     Using Slab Decomposition



     bravais-lattice index     =            0
     lattice parameter (alat)  =       4.6969  a.u.
     unit-cell volume          =      79.7650 (a.u.)^3
     number of atoms/cell      =            1
     number of atomic types    =            1
     number of electrons       =        16.00
     number of Kohn-Sham states=           12
     kinetic-energy cutoff     =      60.0000  Ry
     charge density cutoff     =     240.0000  Ry
     scf convergence threshold =      1.0E-10
     mixing beta               =       0.7000
     number of iterations used =            8  plain     mixing
     Exchange-correlation= PBE
                           (   1   4   3   4   0   0   0)

     celldm(1)=   4.696901  celldm(2)=   0.000000  celldm(3)=   0.000000
     celldm(4)=   0.000000  celldm(5)=   0.000000  celldm(6)=   0.000000

     crystal axes: (cart. coord. in units of alat)
               a(1) = (  -0.577350   0.577350   0.577350 )  
               a(2) = (   0.577350  -0.577350   0.577350 )  
               a(3) = (   0.577350   0.577350  -0.577350 )  

     reciprocal axes: (cart. coord. in units 2 pi/alat)
               b(1) = (  0.000000  0.866025  0.866025 )  
               b(2) = (  0.866025  0.000000  0.866025 )  
               b(3) = (  0.866025  0.866025  0.000000 )  


     PseudoPot. # 1 for Fe read from file:
     ../pseudos/Fe_ONCV_PBE-1.2.upf
     MD5 check sum: 0a0a3b4237ca738a29386c4fd1f8ac5e
     Pseudo is Norm-conserving, Zval = 16.0
     Generated using ONCVPSP code by D. R. Hamann
     Using radial grid of  602 points,  6 beta functions with: 
                l(1) =   0
                l(2) =   0
                l(3) =   1
                l(4) =   1
                l(5) =   2
                l(6) =   2

     atomic species   valence    mass     pseudopotential
     Fe               16.00    55.84500     Fe( 1.00)

     Starting magnetic structure 
     atomic species   magnetization
     Fe              0.400

     48 Sym. Ops., with inversion, found


                                    s                        frac. trans.

      isym =  1     identity                                     

 cryst.   s( 1) = (     1          0          0      )
                  (     0          1          0      )
                  (     0          0          1      )

 cart.    s( 1) = (  1.0000000  0.0000000  0.0000000 )
                  (  0.0000000  1.0000000  0.0000000 )
                  (  0.0000000  0.0000000  1.0000000 )


      isym =  2     180 deg rotation - cart. axis [0,0,1]        

 cryst.   s( 2) = (     0          1          0      )
                  (     1          0          0      )
                  (    -1         -1         -1      )

 cart.    s( 2) = ( -1.0000000  0.0000000  0.0000000 )
                  (  0.0000000 -1.0000000  0.0000000 )
                  (  0.0000000  0.0000000  1.0000000 )


      isym =  3     180 deg rotation - cart. axis [0,1,0]        

 cryst.   s( 3) = (     0          0          1      )
                  (    -1         -1         -1      )
                  (     1          0          0      )

 cart.    s( 3) = ( -1.0000000  0.0000000  0.0000000 )
                  (  0.0000000  1.0000000  0.0000000 )
                  (  0.0000000  0.0000000 -1.0000000 )


      isym =  4     180 deg rotation - cart. axis [1,0,0]        

 cryst.   s( 4) = (    -1         -1         -1      )
                  (     0          0          1      )
                  (     0          1          0      )

 cart.    s( 4) = (  1.0000000  0.0000000  0.0000000 )
                  (  0.0000000 -1.0000000  0.0000000 )
                  (  0.0000000  0.0000000 -1.0000000 )


      isym =  5     180 deg rotation - cart. axis [1,1,0]        

 cryst.   s( 5) = (    -1          0          0      )
                  (     0         -1          0      )
                  (     1          1          1      )

 cart.    s( 5) = (  0.0000000  1.0000000  0.0000000 )
                  (  1.0000000  0.0000000  0.0000000 )
                  (  0.0000000  0.0000000 -1.0000000 )


      isym =  6     180 deg rotation - cart. axis [1,-1,0]       

 cryst.   s( 6) = (     0         -1          0      )
                  (    -1          0          0      )
                  (     0          0         -1      )

 cart.    s( 6) = (  0.0000000 -1.0000000  0.0000000 )
                  ( -1.0000000  0.0000000  0.0000000 )
                  (  0.0000000  0.0000000 -1.0000000 )


      isym =  7      90 deg rotation - cart. axis [0,0,-1]       

 cryst.   s( 7) = (     1          1          1      )
                  (     0          0         -1      )
                  (    -1          0          0      )

 cart.    s( 7) = (  0.0000000  1.0000000  0.0000000 )
                  ( -1.0000000  0.0000000  0.0000000 )
                  (  0.0000000  0.0000000  1.0000000 )


      isym =  8      90 deg rotation - cart. axis [0,0,1]        

 cryst.   s( 8) = (     0          0         -1      )
                  (     1          1          1      )
                  (     0         -1          0      )

 cart.    s( 8) = (  0.0000000 -1.0000000  0.0000000 )
                  (  1.0000000  0.0000000  0.0000000 )
                  (  0.0000000  0.0000000  1.0000000 )


      isym =  9     180 deg rotation - cart. axis [1,0,1]        

 cryst.   s( 9) = (    -1          0          0      )
                  (     1          1          1      )
                  (     0          0         -1      )

 cart.    s( 9) = (  0.0000000  0.0000000  1.0000000 )
                  (  0.0000000 -1.0000000  0.0000000 )
                  (  1.0000000  0.0000000  0.0000000 )


      isym = 10     180 deg rotation - cart. axis [-1,0,1]       

 cryst.   s(10) = (     0          0         -1      )
                  (     0         -1          0      )
                  (    -1          0          0      )

 cart.    s(10) = (  0.0000000  0.0000000 -1.0000000 )
                  (  0.0000000 -1.0000000  0.0000000 )
                  ( -1.0000000  0.0000000  0.0000000 )


      isym = 11      90 deg rotation - cart. axis [0,1,0]        

 cryst.   s(11) = (     1          1          1      )
                  (    -1          0          0      )
                  (     0         -1          0      )

 cart.    s(11) = (  0.0000000  0.0000000  1.0000000 )
                  (  0.0000000  1.0000000  0.0000000 )
                  ( -1.0000000  0.0000000  0.0000000 )


      isym = 12      90 deg rotation - cart. axis [0,-1,0]       

 cryst.   s(12) = (     0         -1          0      )
                  (     0          0         -1      )
                  (     1          1          1      )

 cart.    s(12) = (  0.0000000  0.0000000 -1.0000000 )
                  (  0.0000000  1.0000000  0.0000000 )
                  (  1.0000000  0.0000000  0.0000000 )


      isym = 13     180 deg rotation - cart. axis [0,1,1]        

 cryst.   s(13) = (     1          1          1      )
                  (     0         -1          0      )
                  (     0          0         -1      )

 cart.    s(13) = ( -1.0000000  0.0000000  0.0000000 )
                  (  0.0000000  0.0000000  1.0000000 )
                  (  0.0000000  1.0000000  0.0000000 )


      isym = 14     180 deg rotation - cart. axis [0,1,-1]       

 cryst.   s(14) = (    -1          0          0      )
                  (     0          0         -1      )
                  (     0         -1          0      )

 cart.    s(14) = ( -1.0000000  0.0000000  0.0000000 )
                  (  0.0000000  0.0000000 -1.0000000 )
                  (  0.0000000 -1.0000000  0.0000000 )


      isym = 15      90 deg rotation - cart. axis [-1,0,0]       

 cryst.   s(15) = (     0         -1          0      )
                  (     1          1          1      )
                  (    -1          0          0      )

 cart.    s(15) = (  1.0000000  0.0000000  0.0000000 )
                  (  0.0000000  0.0000000  1.0000000 )
                  (  0.0000000 -1.0000000  0.0000000 )


      isym = 16      90 deg rotation - cart. axis [1,0,0]        

 cryst.   s(16) = (     0          0         -1      )
                  (    -1          0          0      )
                  (     1          1          1      )

 cart.    s(16) = (  1.0000000  0.0000000  0.0000000 )
                  (  0.0000000  0.0000000 -1.0000000 )
                  (  0.0000000  1.0000000  0.0000000 )


      isym = 17     120 deg rotation - cart. axis [-1,-1,-1]     

 cryst.   s(17) = (     0          0          1      )
                  (     1          0          0      )
                  (     0          1          0      )

 cart.    s(17) = (  0.0000000  1.0000000  0.0000000 )
                  (  0.0000000  0.0000000  1.0000000 )
                  (  1.0000000  0.0000000  0.0000000 )


      isym = 18     120 deg rotation - cart. axis [-1,1,1]       

 cryst.   s(18) = (     1          0          0      )
                  (     0          0          1      )
                  (    -1         -1         -1      )

 cart.    s(18) = (  0.0000000 -1.0000000  0.0000000 )
                  (  0.0000000  0.0000000  1.0000000 )
                  ( -1.0000000  0.0000000  0.0000000 )


      isym = 19     120 deg rotation - cart. axis [1,1,-1]       

 cryst.   s(19) = (     0          1          0      )
                  (    -1         -1         -1      )
                  (     0          0          1      )

 cart.    s(19) = (  0.0000000  1.0000000  0.0000000 )
                  (  0.0000000  0.0000000 -1.0000000 )
                  ( -1.0000000  0.0000000  0.0000000 )


      isym = 20     120 deg rotation - cart. axis [1,-1,1]       

 cryst.   s(20) = (    -1         -1         -1      )
                  (     0          1          0      )
                  (     1          0          0      )

 cart.    s(20) = (  0.0000000 -1.0000000  0.0000000 )
                  (  0.0000000  0.0000000 -1.0000000 )
                  (  1.0000000  0.0000000  0.0000000 )


      isym = 21     120 deg rotation - cart. axis [1,1,1]        

 cryst.   s(21) = (     0          1          0      )
                  (     0          0          1      )
                  (     1          0          0      )

 cart.    s(21) = (  0.0000000  0.0000000  1.0000000 )
                  (  1.0000000  0.0000000  0.0000000 )
                  (  0.0000000  1.0000000  0.0000000 )


      isym = 22     120 deg rotation - cart. axis [-1,1,-1]      

 cryst.   s(22) = (     0          0          1      )
                  (     0          1          0      )
                  (    -1         -1         -1      )

 cart.    s(22) = (  0.0000000  0.0000000  1.0000000 )
                  ( -1.0000000  0.0000000  0.0000000 )
                  (  0.0000000 -1.0000000  0.0000000 )


      isym = 23     120 deg rotation - cart. axis [1,-1,-1]      

 cryst.   s(23) = (     1          0          0      )
                  (    -1         -1         -1      )
                  (     0          1          0      )

 cart.    s(23) = (  0.0000000  0.0000000 -1.0000000 )
                  ( -1.0000000  0.0000000  0.0000000 )
                  (  0.0000000  1.0000000  0.0000000 )


      isym = 24     120 deg rotation - cart. axis [-1,-1,1]      

 cryst.   s(24) = (    -1         -1         -1      )
                  (     1          0          0      )
                  (     0          0          1      )

 cart.    s(24) = (  0.0000000  0.0000000 -1.0000000 )
                  (  1.0000000  0.0000000  0.0000000 )
                  (  0.0000000 -1.0000000  0.0000000 )


      isym = 25     inversion                                    

 cryst.   s(25) = (    -1          0          0      )
                  (     0         -1          0      )
                  (     0          0         -1      )

 cart.    s(25) = ( -1.0000000  0.0000000  0.0000000 )
                  (  0.0000000 -1.0000000  0.0000000 )
                  (  0.0000000  0.0000000 -1.0000000 )


      isym = 26     inv. 180 deg rotation - cart. axis [0,0,1]   

 cryst.   s(26) = (     0         -1          0      )
                  (    -1          0          0      )
                  (     1          1          1      )

 cart.    s(26) = (  1.0000000  0.0000000  0.0000000 )
                  (  0.0000000  1.0000000  0.0000000 )
                  (  0.0000000  0.0000000 -1.0000000 )


      isym = 27     inv. 180 deg rotation - cart. axis [0,1,0]   

 cryst.   s(27) = (     0          0         -1      )
                  (     1          1          1      )
                  (    -1          0          0      )

 cart.    s(27) = (  1.0000000  0.0000000  0.0000000 )
                  (  0.0000000 -1.0000000  0.0000000 )
                  (  0.0000000  0.0000000  1.0000000 )


      isym = 28     inv. 180 deg rotation - cart. axis [1,0,0]   

 cryst.   s(28) = (     1          1          1      )
                  (     0          0         -1      )
                  (     0         -1          0      )

 cart.    s(28) = ( -1.0000000  0.0000000  0.0000000 )
                  (  0.0000000  1.0000000  0.0000000 )
                  (  0.0000000  0.0000000  1.0000000 )


      isym = 29     inv. 180 deg rotation - cart. axis [1,1,0]   

 cryst.   s(29) = (     1          0          0      )
                  (     0          1          0      )
                  (    -1         -1         -1      )

 cart.    s(29) = (  0.0000000 -1.0000000  0.0000000 )
                  ( -1.0000000  0.0000000  0.0000000 )
                  (  0.0000000  0.0000000  1.0000000 )


      isym = 30     inv. 180 deg rotation - cart. axis [1,-1,0]  

 cryst.   s(30) = (     0          1          0      )
                  (     1          0          0      )
                  (     0          0          1      )

 cart.    s(30) = (  0.0000000  1.0000000  0.0000000 )
                  (  1.0000000  0.0000000  0.0000000 )
                  (  0.0000000  0.0000000  1.0000000 )


      isym = 31     inv.  90 deg rotation - cart. axis [0,0,-1]  

 cryst.   s(31) = (    -1         -1         -1      )
                  (     0          0          1      )
                  (     1          0          0      )

 cart.    s(31) = (  0.0000000 -1.0000000  0.0000000 )
                  (  1.0000000  0.0000000  0.0000000 )
                  (  0.0000000  0.0000000 -1.0000000 )


      isym = 32     inv.  90 deg rotation - cart. axis [0,0,1]   

 cryst.   s(32) = (     0          0          1      )
                  (    -1         -1         -1      )
                  (     0          1          0      )

 cart.    s(32) = (  0.0000000  1.0000000  0.0000000 )
                  ( -1.0000000  0.0000000  0.0000000 )
                  (  0.0000000  0.0000000 -1.0000000 )


      isym = 33     inv. 180 deg rotation - cart. axis [1,0,1]   

 cryst.   s(33) = (     1          0          0      )
                  (    -1         -1         -1      )
                  (     0          0          1      )

 cart.    s(33) = (  0.0000000  0.0000000 -1.0000000 )
                  (  0.0000000  1.0000000  0.0000000 )
                  ( -1.0000000  0.0000000  0.0000000 )


      isym = 34     inv. 180 deg rotation - cart. axis [-1,0,1]  

 cryst.   s(34) = (     0          0          1      )
                  (     0          1          0      )
                  (     1          0          0      )

 cart.    s(34) = (  0.0000000  0.0000000  1.0000000 )
                  (  0.0000000  1.0000000  0.0000000 )
                  (  1.0000000  0.0000000  0.0000000 )


      isym = 35     inv.  90 deg rotation - cart. axis [0,1,0]   

 cryst.   s(35) = (    -1         -1         -1      )
                  (     1          0          0      )
                  (     0          1          0      )

 cart.    s(35) = (  0.0000000  0.0000000 -1.0000000 )
                  (  0.0000000 -1.0000000  0.0000000 )
                  (  1.0000000  0.0000000  0.0000000 )


      isym = 36     inv.  90 deg rotation - cart. axis [0,-1,0]  

 cryst.   s(36) = (     0          1          0      )
                  (     0          0          1      )
                  (    -1         -1         -1      )

 cart.    s(36) = (  0.0000000  0.0000000  1.0000000 )
                  (  0.0000000 -1.0000000  0.0000000 )
                  ( -1.0000000  0.0000000  0.0000000 )


      isym = 37     inv. 180 deg rotation - cart. axis [0,1,1]   

 cryst.   s(37) = (    -1         -1         -1      )
                  (     0          1          0      )
                  (     0          0          1      )

 cart.    s(37) = (  1.0000000  0.0000000  0.0000000 )
                  (  0.0000000  0.0000000 -1.0000000 )
                  (  0.0000000 -1.0000000  0.0000000 )


      isym = 38     inv. 180 deg rotation - cart. axis [0,1,-1]  

 cryst.   s(38) = (     1          0          0      )
                  (     0          0          1      )
                  (     0          1          0      )

 cart.    s(38) = (  1.0000000  0.0000000  0.0000000 )
                  (  0.0000000  0.0000000  1.0000000 )
                  (  0.0000000  1.0000000  0.0000000 )


      isym = 39     inv.  90 deg rotation - cart. axis [-1,0,0]  

 cryst.   s(39) = (     0          1          0      )
                  (    -1         -1         -1      )
                  (     1          0          0      )

 cart.    s(39) = ( -1.0000000  0.0000000  0.0000000 )
                  (  0.0000000  0.0000000 -1.0000000 )
                  (  0.0000000  1.0000000  0.0000000 )


      isym = 40     inv.  90 deg rotation - cart. axis [1,0,0]   

 cryst.   s(40) = (     0          0          1      )
                  (     1          0          0      )
                  (    -1         -1         -1      )

 cart.    s(40) = ( -1.0000000  0.0000000  0.0000000 )
                  (  0.0000000  0.0000000  1.0000000 )
                  (  0.0000000 -1.0000000  0.0000000 )


      isym = 41     inv. 120 deg rotation - cart. axis [-1,-1,-1]

 cryst.   s(41) = (     0          0         -1      )
                  (    -1          0          0      )
                  (     0         -1          0      )

 cart.    s(41) = (  0.0000000 -1.0000000  0.0000000 )
                  (  0.0000000  0.0000000 -1.0000000 )
                  ( -1.0000000  0.0000000  0.0000000 )


      isym = 42     inv. 120 deg rotation - cart. axis [-1,1,1]  

 cryst.   s(42) = (    -1          0          0      )
                  (     0          0         -1      )
                  (     1          1          1      )

 cart.    s(42) = (  0.0000000  1.0000000  0.0000000 )
                  (  0.0000000  0.0000000 -1.0000000 )
                  (  1.0000000  0.0000000  0.0000000 )


      isym = 43     inv. 120 deg rotation - cart. axis [1,1,-1]  

 cryst.   s(43) = (     0         -1          0      )
                  (     1          1          1      )
                  (     0          0         -1      )

 cart.    s(43) = (  0.0000000 -1.0000000  0.0000000 )
                  (  0.0000000  0.0000000  1.0000000 )
                  (  1.0000000  0.0000000  0.0000000 )


      isym = 44     inv. 120 deg rotation - cart. axis [1,-1,1]  

 cryst.   s(44) = (     1          1          1      )
                  (     0         -1          0      )
                  (    -1          0          0      )

 cart.    s(44) = (  0.0000000  1.0000000  0.0000000 )
                  (  0.0000000  0.0000000  1.0000000 )
                  ( -1.0000000  0.0000000  0.0000000 )


      isym = 45     inv. 120 deg rotation - cart. axis [1,1,1]   

 cryst.   s(45) = (     0         -1          0      )
                  (     0          0         -1      )
                  (    -1          0          0      )

 cart.    s(45) = (  0.0000000  0.0000000 -1.0000000 )
                  ( -1.0000000  0.0000000  0.0000000 )
                  (  0.0000000 -1.0000000  0.0000000 )


      isym = 46     inv. 120 deg rotation - cart. axis [-1,1,-1] 

 cryst.   s(46) = (     0          0         -1      )
                  (     0         -1          0      )
                  (     1          1          1      )

 cart.    s(46) = (  0.0000000  0.0000000 -1.0000000 )
                  (  1.0000000  0.0000000  0.0000000 )
                  (  0.0000000  1.0000000  0.0000000 )


      isym = 47     inv. 120 deg rotation - cart. axis [1,-1,-1] 

 cryst.   s(47) = (    -1          0          0      )
                  (     1          1          1      )
                  (     0         -1          0      )

 cart.    s(47) = (  0.0000000  0.0000000  1.0000000 )
                  (  1.0000000  0.0000000  0.0000000 )
                  (  0.0000000 -1.0000000  0.0000000 )


      isym = 48     inv. 120 deg rotation - cart. axis [-1,-1,1] 

 cryst.   s(48) = (     1          1          1      )
                  (    -1          0          0      )
                  (     0          0         -1      )

 cart.    s(48) = (  0.0000000  0.0000000  1.0000000 )
                  ( -1.0000000  0.0000000  0.0000000 )
                  (  0.0000000  1.0000000  0.0000000 )


   Cartesian axes

     site n.     atom                  positions (alat units)
         1        Fe     tau(   1) = (   0.0000000   0.0000000   0.0000000  )

   Crystallographic axes

     site n.     atom                  positions (cryst. coord.)
         1        Fe     tau(   1) = (  0.0000000  0.0000000  0.0000000  )

     number of k points=    16  Gaussian smearing, width (Ry)=  0.0073
                       cart. coord. in units 2pi/alat
        k(    1) = (   0.0000000   0.0000000   0.0000000), wk =   0.0046296
        k(    2) = (   0.1443376   0.1443376   0.0000000), wk =   0.0555556
        k(    3) = (   0.2886751   0.2886751   0.0000000), wk =   0.0555556
        k(    4) = (  -0.4330127  -0.4330127   0.0000000), wk =   0.0277778
        k(    5) = (   0.2886751   0.1443376   0.1443376), wk =   0.1111111
        k(    6) = (   0.4330127   0.2886751   0.1443376), wk =   0.2222222
        k(    7) = (   0.5773503   0.2886751   0.2886751), wk =   0.0370370
        k(    8) = (   0.2886751   0.2886751   0.2886751), wk =   0.0370370
        k(    9) = (   0.4330127   0.4330127   0.2886751), wk =   0.0555556
        k(   10) = (   0.0000000   0.0000000   0.2886751), wk =   0.0277778
        k(   11) = (  -0.0000000  -0.1443376   0.4330127), wk =   0.1111111
        k(   12) = (  -0.8660254  -0.2886751  -0.2886751), wk =   0.0555556
        k(   13) = (  -0.7216878  -0.1443376  -0.2886751), wk =   0.1111111
        k(   14) = (  -0.0000000  -0.0000000   0.5773503), wk =   0.0277778
        k(   15) = (  -0.8660254  -0.1443376  -0.1443376), wk =   0.0555556
        k(   16) = (  -0.8660254  -0.8660254  -0.8660254), wk =   0.0046296

                       cryst. coord.
        k(    1) = (   0.0000000   0.0000000   0.0000000), wk =   0.0046296
        k(    2) = (   0.0000000   0.0000000   0.1666667), wk =   0.0555556
        k(    3) = (   0.0000000   0.0000000   0.3333333), wk =   0.0555556
        k(    4) = (   0.0000000   0.0000000  -0.5000000), wk =   0.0277778
        k(    5) = (   0.0000000   0.1666667   0.1666667), wk =   0.1111111
        k(    6) = (   0.0000000   0.1666667   0.3333333), wk =   0.2222222
        k(    7) = (   0.0000000   0.3333333   0.3333333), wk =   0.0370370
        k(    8) = (   0.1666667   0.1666667   0.1666667), wk =   0.0370370
        k(    9) = (   0.1666667   0.1666667   0.3333333), wk =   0.0555556
        k(   10) = (   0.1666667   0.1666667  -0.1666667), wk =   0.0277778
        k(   11) = (   0.1666667   0.3333333  -0.3333333), wk =   0.1111111
        k(   12) = (   0.1666667  -0.5000000  -0.5000000), wk =   0.0555556
        k(   13) = (   0.1666667  -0.5000000  -0.3333333), wk =   0.1111111
        k(   14) = (   0.3333333   0.3333333  -0.3333333), wk =   0.0277778
        k(   15) = (   0.3333333  -0.5000000  -0.5000000), wk =   0.0555556
        k(   16) = (  -0.5000000  -0.5000000  -0.5000000), wk =   0.0046296

     Dense  grid:     5017 G-vectors     FFT dimensions: (  24,  24,  24)

     Dynamical RAM for                 wfc:       0.11 MB

     Dynamical RAM for     wfc (w. buffer):       3.78 MB

     Dynamical RAM for           str. fact:       0.08 MB

     Dynamical RAM for           local pot:       0.00 MB

     Dynamical RAM for          nlocal pot:       0.17 MB

     Dynamical RAM for                qrad:       1.24 MB

     Dynamical RAM for          rho,v,vnew:       1.09 MB

     Dynamical RAM for               rhoin:       0.36 MB

     Dynamical RAM for            rho*nmix:       2.45 MB

     Dynamical RAM for           G-vectors:       0.33 MB

     Dynamical RAM for          h,s,v(r/c):       0.03 MB

     Dynamical RAM for          <psi|beta>:       0.00 MB

     Dynamical RAM for                 psi:       0.23 MB

     Dynamical RAM for                hpsi:       0.23 MB

     Dynamical RAM for      wfcinit/wfcrot:       0.23 MB

     Estimated static dynamical RAM per process >       7.84 MB

     Estimated max dynamical RAM per process >      10.78 MB
     Generating pointlists ...
     new r_m :   0.4125 (alat units)  1.9375 (a.u.) for type    1

     Initial potential from superposition of free atoms

     starting charge      15.9550, renormalised to      16.0000
     Starting wfcs are random

     total cpu time spent up to now is        0.8 secs

     per-process dynamical memory:    15.1 Mb

     Self-consistent Calculation

     iteration #  1     ecut=    60.00 Ry     beta= 0.70
     Davidson diagonalization with overlap

---- Real-time Memory Report at c_bands before calling an iterative solver
            56 MiB given to the printing process from OS
            14 MiB allocation reported by mallinfo(arena+hblkhd)
         19669 MiB available memory on the node where the printing process lives
------------------
     ethr =  1.00E-02,  avg # of iterations = 10.1

     total cpu time spent up to now is        3.1 secs

     total energy              =    -236.62190286 Ry
     estimated scf accuracy    <       0.29783933 Ry

     total magnetization       =     3.31 Bohr mag/cell
     absolute magnetization    =     3.33 Bohr mag/cell

     iteration #  2     ecut=    60.00 Ry     beta= 0.70
     Davidson diagonalization with overlap

---- Real-time Memory Report at c_bands before calling an iterative solver
            60 MiB given to the printing process from OS
            18 MiB allocation reported by mallinfo(arena+hblkhd)
         19664 MiB available memory on the node where the printing process lives
------------------
     ethr =  1.86E-03,  avg # of iterations =  2.0

     total cpu time spent up to now is        3.8 secs

     total energy              =    -236.67847637 Ry
     estimated scf accuracy    <       0.08505308 Ry

     total magnetization       =     2.74 Bohr mag/cell
     absolute magnetization    =     2.90 Bohr mag/cell

     iteration #  3     ecut=    60.00 Ry     beta= 0.70
     Davidson diagonalization with overlap

---- Real-time Memory Report at c_bands before calling an iterative solver
            60 MiB given to the printing process from OS
            18 MiB allocation reported by mallinfo(arena+hblkhd)
         19664 MiB available memory on the node where the printing process lives
------------------
     ethr =  5.32E-04,  avg # of iterations =  1.9

     total cpu time spent up to now is        4.5 secs

     total energy              =    -236.69536885 Ry
     estimated scf accuracy    <       0.03923353 Ry

     total magnetization       =     2.74 Bohr mag/cell
     absolute magnetization    =     2.86 Bohr mag/cell

     iteration #  4     ecut=    60.00 Ry     beta= 0.70
     Davidson diagonalization with overlap

---- Real-time Memory Report at c_bands before calling an iterative solver
            61 MiB given to the printing process from OS
            18 MiB allocation reported by mallinfo(arena+hblkhd)
         19664 MiB available memory on the node where the printing process lives
------------------
     ethr =  2.45E-04,  avg # of iterations =  1.4

     total cpu time spent up to now is        5.2 secs

     total energy              =    -236.70571401 Ry
     estimated scf accuracy    <       0.00112383 Ry

     total magnetization       =     2.41 Bohr mag/cell
     absolute magnetization    =     2.60 Bohr mag/cell

     iteration #  5     ecut=    60.00 Ry     beta= 0.70
     Davidson diagonalization with overlap

---- Real-time Memory Report at c_bands before calling an iterative solver
            61 MiB given to the printing process from OS
            18 MiB allocation reported by mallinfo(arena+hblkhd)
         19660 MiB available memory on the node where the printing process lives
------------------
     ethr =  7.02E-06,  avg # of iterations =  3.8

     total cpu time spent up to now is        6.2 secs

     total energy              =    -236.70591452 Ry
     estimated scf accuracy    <       0.00038143 Ry

     total magnetization       =     2.33 Bohr mag/cell
     absolute magnetization    =     2.52 Bohr mag/cell

     iteration #  6     ecut=    60.00 Ry     beta= 0.70
     Davidson diagonalization with overlap

---- Real-time Memory Report at c_bands before calling an iterative solver
            61 MiB given to the printing process from OS
            19 MiB allocation reported by mallinfo(arena+hblkhd)
         19660 MiB available memory on the node where the printing process lives
------------------
     ethr =  2.38E-06,  avg # of iterations =  2.2

     total cpu time spent up to now is        7.1 secs

     total energy              =    -236.70731628 Ry
     estimated scf accuracy    <       0.00023748 Ry

     total magnetization       =     2.22 Bohr mag/cell
     absolute magnetization    =     2.38 Bohr mag/cell

     iteration #  7     ecut=    60.00 Ry     beta= 0.70
     Davidson diagonalization with overlap

---- Real-time Memory Report at c_bands before calling an iterative solver
            62 MiB given to the printing process from OS
            19 MiB allocation reported by mallinfo(arena+hblkhd)
         19657 MiB available memory on the node where the printing process lives
------------------
     ethr =  1.48E-06,  avg # of iterations =  1.0

     total cpu time spent up to now is        7.8 secs

     total energy              =    -236.70722200 Ry
     estimated scf accuracy    <       0.00004344 Ry

     total magnetization       =     2.23 Bohr mag/cell
     absolute magnetization    =     2.40 Bohr mag/cell

     iteration #  8     ecut=    60.00 Ry     beta= 0.70
     Davidson diagonalization with overlap

---- Real-time Memory Report at c_bands before calling an iterative solver
            62 MiB given to the printing process from OS
            19 MiB allocation reported by mallinfo(arena+hblkhd)
         19656 MiB available memory on the node where the printing process lives
------------------
     ethr =  2.72E-07,  avg # of iterations =  2.5

     total cpu time spent up to now is        8.6 secs

     total energy              =    -236.70738674 Ry
     estimated scf accuracy    <       0.00008397 Ry

     total magnetization       =     2.22 Bohr mag/cell
     absolute magnetization    =     2.37 Bohr mag/cell

     iteration #  9     ecut=    60.00 Ry     beta= 0.70
     Davidson diagonalization with overlap

---- Real-time Memory Report at c_bands before calling an iterative solver
            62 MiB given to the printing process from OS
            20 MiB allocation reported by mallinfo(arena+hblkhd)
         19658 MiB available memory on the node where the printing process lives
------------------
     ethr =  2.72E-07,  avg # of iterations =  1.5

     total cpu time spent up to now is        9.3 secs

     total energy              =    -236.70739829 Ry
     estimated scf accuracy    <       0.00000522 Ry

     total magnetization       =     2.22 Bohr mag/cell
     absolute magnetization    =     2.38 Bohr mag/cell

     iteration # 10     ecut=    60.00 Ry     beta= 0.70
     Davidson diagonalization with overlap

---- Real-time Memory Report at c_bands before calling an iterative solver
            63 MiB given to the printing process from OS
            20 MiB allocation reported by mallinfo(arena+hblkhd)
         19659 MiB available memory on the node where the printing process lives
------------------
     ethr =  3.26E-08,  avg # of iterations =  2.3

     total cpu time spent up to now is       10.1 secs

     total energy              =    -236.70739942 Ry
     estimated scf accuracy    <       0.00000008 Ry

     total magnetization       =     2.22 Bohr mag/cell
     absolute magnetization    =     2.38 Bohr mag/cell

     iteration # 11     ecut=    60.00 Ry     beta= 0.70
     Davidson diagonalization with overlap

---- Real-time Memory Report at c_bands before calling an iterative solver
            63 MiB given to the printing process from OS
            20 MiB allocation reported by mallinfo(arena+hblkhd)
         19659 MiB available memory on the node where the printing process lives
------------------
     ethr =  4.84E-10,  avg # of iterations =  3.6

     total cpu time spent up to now is       11.0 secs

     total energy              =    -236.70739955 Ry
     estimated scf accuracy    <       0.00000004 Ry

     total magnetization       =     2.22 Bohr mag/cell
     absolute magnetization    =     2.38 Bohr mag/cell

     iteration # 12     ecut=    60.00 Ry     beta= 0.70
     Davidson diagonalization with overlap

---- Real-time Memory Report at c_bands before calling an iterative solver
            63 MiB given to the printing process from OS
            20 MiB allocation reported by mallinfo(arena+hblkhd)
         19659 MiB available memory on the node where the printing process lives
------------------
     ethr =  2.46E-10,  avg # of iterations =  1.1

     total cpu time spent up to now is       11.7 secs

     total energy              =    -236.70739956 Ry
     estimated scf accuracy    <          5.7E-09 Ry

     total magnetization       =     2.22 Bohr mag/cell
     absolute magnetization    =     2.38 Bohr mag/cell

     iteration # 13     ecut=    60.00 Ry     beta= 0.70
     Davidson diagonalization with overlap

---- Real-time Memory Report at c_bands before calling an iterative solver
            63 MiB given to the printing process from OS
            20 MiB allocation reported by mallinfo(arena+hblkhd)
         19658 MiB available memory on the node where the printing process lives
------------------
     ethr =  3.56E-11,  avg # of iterations =  2.1

     Magnetic moment per site  (integrated on atomic sphere of radius R)
     atom   1 (R=0.413)  charge= 14.4319  magn=  2.2950

     total cpu time spent up to now is       12.4 secs

     End of self-consistent calculation

 ------ SPIN UP ------------


          k = 0.0000 0.0000 0.0000 (   627 PWs)   bands (ev):

   -69.6260 -35.6892 -35.6892 -35.6892  10.0127  15.9457  15.9457  15.9457
    17.0631  17.0631  42.6407  42.6407

     occupation numbers 
     1.0000   1.0000   1.0000   1.0000   1.0000   1.0000   1.0000   1.0000
     1.0000   1.0000   0.0000   0.0000

          k = 0.1443 0.1443 0.0000 (   625 PWs)   bands (ev):

   -69.6089 -35.7803 -35.7198 -35.6890  11.0772  15.6751  15.8777  16.5072
    16.8957  17.0881  37.4330  40.7252

     occupation numbers 
     1.0000   1.0000   1.0000   1.0000   1.0000   1.0000   1.0000   1.0000
     1.0000   1.0000   0.0000   0.0000

          k = 0.2887 0.2887 0.0000 (   626 PWs)   bands (ev):

   -69.5747 -35.9603 -35.7808 -35.6888  13.1434  15.1657  16.2695  17.0690
    17.1816  17.7769  29.8736  37.4379

     occupation numbers 
     1.0000   1.0000   1.0000   1.0000   1.0000   1.0000   1.0000   1.0000
     1.0000   1.0000   0.0000   0.0000

          k =-0.4330-0.4330 0.0000 (   630 PWs)   bands (ev):

   -69.5576 -36.0492 -35.8111 -35.6886  13.4464  14.9223  17.1307  17.2452
    18.5077  18.7219  25.2403  36.1329

     occupation numbers 
     1.0000   1.0000   1.0000   1.0000   1.0000   1.0000   1.0000   1.0000
     0.0000   0.0000   0.0000   0.0000

          k = 0.2887 0.1443 0.1443 (   626 PWs)   bands (ev):

   -69.5833 -35.9026 -35.7576 -35.7100  12.8380  15.3755  15.4840  16.8170
    17.2541  17.7261  33.6905  34.6357

     occupation numbers 
     1.0000   1.0000   1.0000   1.0000   1.0000   1.0000   1.0000   1.0000
     1.0000   1.0000   0.0000   0.0000

          k = 0.4330 0.2887 0.1443 (   621 PWs)   bands (ev):

   -69.5576 -36.0036 -35.8289 -35.7173  13.9544  15.0290  16.0140  17.0791
    17.5400  20.2027  27.1103  32.1086

     occupation numbers 
     1.0000   1.0000   1.0000   1.0000   1.0000   1.0000   1.0000   1.0000
     1.0000   0.0000   0.0000   0.0000

          k = 0.5774 0.2887 0.2887 (   634 PWs)   bands (ev):

   -69.5490 -35.9377 -35.9377 -35.7346  14.6403  15.1765  15.1765  17.3694
    17.3694  24.7760  24.7760  27.2819

     occupation numbers 
     1.0000   1.0000   1.0000   1.0000   1.0000   1.0000   1.0000   1.0000
     1.0000   0.0000   0.0000   0.0000

          k = 0.2887 0.2887 0.2887 (   619 PWs)   bands (ev):

   -69.5639 -35.9729 -35.7698 -35.7698  14.6298  14.9605  14.9605  17.1930
    17.1930  20.1465  30.9635  30.9635

     occupation numbers 
     1.0000   1.0000   1.0000   1.0000   1.0000   1.0000   1.0000   1.0000
     1.0000   0.0000   0.0000   0.0000

          k = 0.4330 0.4330 0.2887 (   634 PWs)   bands (ev):

   -69.5542 -35.9563 -35.8517 -35.7759  14.6117  14.8542  15.7185  17.2512
    17.2675  23.5129  25.8061  29.9961

     occupation numbers 
     1.0000   1.0000   1.0000   1.0000   1.0000   1.0000   1.0000   1.0000
     1.0000   0.0000   0.0000   0.0000

          k = 0.0000 0.0000 0.2887 (   615 PWs)   bands (ev):

   -69.5930 -35.7962 -35.7516 -35.7516  12.0408  16.0424  16.0424  16.1711
    16.5057  17.4388  37.2703  38.5775

     occupation numbers 
     1.0000   1.0000   1.0000   1.0000   1.0000   1.0000   1.0000   1.0000
     1.0000   1.0000   0.0000   0.0000

          k =-0.0000-0.1443 0.4330 (   628 PWs)   bands (ev):

   -69.5610 -35.9443 -35.8146 -35.7584  13.7787  15.2988  15.7734  16.6889
    17.6707  18.4774  30.6041  35.2647

     occupation numbers 
     1.0000   1.0000   1.0000   1.0000   1.0000   1.0000   1.0000   1.0000
     1.0000   0.0002   0.0000   0.0000

          k =-0.8660-0.2887-0.2887 (   636 PWs)   bands (ev):

   -69.5449 -36.0244 -35.8460 -35.7547  13.9442  15.4464  15.5784  16.7963
    18.4361  21.3373  25.4289  33.8204

     occupation numbers 
     1.0000   1.0000   1.0000   1.0000   1.0000   1.0000   1.0000   1.0000
     0.0014   0.0000   0.0000   0.0000

          k =-0.7217-0.1443-0.2887 (   625 PWs)   bands (ev):

   -69.5386 -35.9801 -35.9006 -35.7825  14.5092  14.5702  15.7723  17.1974
    17.9374  22.1145  28.0009  28.8569

     occupation numbers 
     1.0000   1.0000   1.0000   1.0000   1.0000   1.0000   1.0000   1.0000
     1.0000   0.0000   0.0000   0.0000

          k =-0.0000-0.0000 0.5774 (   623 PWs)   bands (ev):

   -69.5334 -35.9262 -35.8819 -35.8819  14.1156  14.3832  17.0294  17.0294
    17.6581  20.9548  31.3899  31.3899

     occupation numbers 
     1.0000   1.0000   1.0000   1.0000   1.0000   1.0000   1.0000   1.0000
     1.0000   0.0000   0.0000   0.0000

          k =-0.8660-0.1443-0.1443 (   636 PWs)   bands (ev):

   -69.5195 -35.9748 -35.9154 -35.8853  13.9051  14.0025  17.1805  17.4477
    18.3107  25.0895  26.4274  29.7127

     occupation numbers 
     1.0000   1.0000   1.0000   1.0000   1.0000   1.0000   1.0000   1.0000
     0.1105   0.0000   0.0000   0.0000

          k =-0.8660-0.8660-0.8660 (   610 PWs)   bands (ev):

   -69.5068 -35.9498 -35.9498 -35.9498  13.5188  13.5188  18.2622  18.2622
    18.2622  27.8428  27.8428  27.8428

     occupation numbers 
     1.0000   1.0000   1.0000   1.0000   1.0000   1.0000   0.2951   0.2951
     0.2951   0.0000   0.0000   0.0000

 ------ SPIN DOWN ----------


          k = 0.0000 0.0000 0.0000 (   627 PWs)   bands (ev):

   -67.4782 -33.0260 -33.0260 -33.0260  10.0415  18.0435  18.0435  18.0435
    20.0556  20.0556  42.3172  42.3172

     occupation numbers 
     1.0000   1.0000   1.0000   1.0000   1.0000   0.9947   0.9947   0.9947
     0.0000   0.0000   0.0000   0.0000

          k = 0.1443 0.1443 0.0000 (   625 PWs)   bands (ev):

   -67.4604 -33.1270 -33.0595 -33.0260  11.1245  17.7100  17.9236  18.6632
    19.7830  20.0859  37.7480  40.6778

     occupation numbers 
     1.0000   1.0000   1.0000   1.0000   1.0000   1.0000   1.0000   0.0000
     0.0000   0.0000   0.0000   0.0000

          k = 0.2887 0.2887 0.0000 (   626 PWs)   bands (ev):

   -67.4248 -33.3259 -33.1259 -33.0259  13.6754  17.0915  17.6597  19.7847
    20.0927  20.2138  30.6937  37.4283

     occupation numbers 
     1.0000   1.0000   1.0000   1.0000   1.0000   1.0000   1.0000   0.0000
     0.0000   0.0000   0.0000   0.0000

          k =-0.4330-0.4330 0.0000 (   630 PWs)   bands (ev):

   -67.4069 -33.4239 -33.1589 -33.0259  14.7945  16.8004  18.7048  19.8954
    20.3092  20.9406  26.6218  36.0761

     occupation numbers 
     1.0000   1.0000   1.0000   1.0000   1.0000   1.0000   0.0000   0.0000
     0.0000   0.0000   0.0000   0.0000

          k = 0.2887 0.1443 0.1443 (   626 PWs)   bands (ev):

   -67.4337 -33.2619 -33.1011 -33.0491  13.0304  17.3496  17.3825  19.5740
    19.8591  20.2950  34.2483  35.1107

     occupation numbers 
     1.0000   1.0000   1.0000   1.0000   1.0000   1.0000   1.0000   0.0000
     0.0000   0.0000   0.0000   0.0000

          k = 0.4330 0.2887 0.1443 (   621 PWs)   bands (ev):

   -67.4069 -33.3734 -33.1793 -33.0571  15.1664  16.8660  17.4066  19.7950
    20.3417  21.9306  28.1188  32.6219

     occupation numbers 
     1.0000   1.0000   1.0000   1.0000   1.0000   1.0000   1.0000   0.0000
     0.0000   0.0000   0.0000   0.0000

          k = 0.5774 0.2887 0.2887 (   634 PWs)   bands (ev):

   -67.3980 -33.3001 -33.3001 -33.0760  16.2902  16.7737  16.7737  20.0931
    20.0931  25.8598  25.8598  28.1012

     occupation numbers 
     1.0000   1.0000   1.0000   1.0000   1.0000   1.0000   1.0000   0.0000
     0.0000   0.0000   0.0000   0.0000

          k = 0.2887 0.2887 0.2887 (   619 PWs)   bands (ev):

   -67.4135 -33.3393 -33.1150 -33.1150  15.2118  16.7231  16.7231  20.1724
    20.1724  21.9939  31.5883  31.5883

     occupation numbers 
     1.0000   1.0000   1.0000   1.0000   1.0000   1.0000   1.0000   0.0000
     0.0000   0.0000   0.0000   0.0000

          k = 0.4330 0.4330 0.2887 (   634 PWs)   bands (ev):

   -67.4034 -33.3211 -33.2051 -33.1220  16.0674  16.5286  17.0161  20.2179
    20.3409  24.6116  26.8713  30.6240

     occupation numbers 
     1.0000   1.0000   1.0000   1.0000   1.0000   1.0000   1.0000   0.0000
     0.0000   0.0000   0.0000   0.0000

          k = 0.0000 0.0000 0.2887 (   615 PWs)   bands (ev):

   -67.4438 -33.1454 -33.0942 -33.0942  12.1354  18.0758  18.0758  18.6709
    18.8618  20.4445  37.5461  39.0509

     occupation numbers 
     1.0000   1.0000   1.0000   1.0000   1.0000   0.9820   0.9820   0.0000
     0.0000   0.0000   0.0000   0.0000

          k =-0.0000-0.1443 0.4330 (   628 PWs)   bands (ev):

   -67.4105 -33.3079 -33.1631 -33.1022  14.4550  17.3603  17.7469  19.0102
    19.9694  20.8995  31.3713  35.8142

     occupation numbers 
     1.0000   1.0000   1.0000   1.0000   1.0000   1.0000   1.0000   0.0000
     0.0000   0.0000   0.0000   0.0000

          k =-0.8660-0.2887-0.2887 (   636 PWs)   bands (ev):

   -67.3938 -33.3959 -33.1974 -33.0983  15.5068  17.1795  17.5143  19.2509
    20.8596  22.5689  26.6758  34.3112

     occupation numbers 
     1.0000   1.0000   1.0000   1.0000   1.0000   1.0000   1.0000   0.0000
     0.0000   0.0000   0.0000   0.0000

          k =-0.7217-0.1443-0.2887 (   625 PWs)   bands (ev):

   -67.3873 -33.3466 -33.2581 -33.1282  16.0224  16.5537  17.7012  19.4916
    20.3318  23.4727  28.9095  29.5167

     occupation numbers 
     1.0000   1.0000   1.0000   1.0000   1.0000   1.0000   1.0000   0.0000
     0.0000   0.0000   0.0000   0.0000

          k =-0.0000-0.0000 0.5774 (   623 PWs)   bands (ev):

   -67.3819 -33.2876 -33.2370 -33.2370  15.5592  16.5635  19.1154  19.1154
    19.9736  22.3686  31.8871  31.8871

     occupation numbers 
     1.0000   1.0000   1.0000   1.0000   1.0000   1.0000   0.0000   0.0000
     0.0000   0.0000   0.0000   0.0000

          k =-0.8660-0.1443-0.1443 (   636 PWs)   bands (ev):

   -67.3676 -33.3398 -33.2737 -33.2411  15.8854  15.9141  19.3243  19.6016
    20.7174  25.8351  27.1623  30.0919

     occupation numbers 
     1.0000   1.0000   1.0000   1.0000   1.0000   1.0000   0.0000   0.0000
     0.0000   0.0000   0.0000   0.0000

          k =-0.8660-0.8660-0.8660 (   610 PWs)   bands (ev):

   -67.3544 -33.3116 -33.3116 -33.3116  15.4959  15.4959  20.6619  20.6619
    20.6619  28.0093  28.0093  28.0093

     occupation numbers 
     1.0000   1.0000   1.0000   1.0000   1.0000   1.0000   0.0000   0.0000
     0.0000   0.0000   0.0000   0.0000

     the Fermi energy is    18.2241 ev

!    total energy              =    -236.70739956 Ry
     estimated scf accuracy    <          9.8E-11 Ry
     smearing contrib. (-TS)   =      -0.00009500 Ry
     internal energy E=F+TS    =    -236.70730456 Ry

     The total energy is F=E-TS. E is the sum of the following terms:
     one-electron contribution =     -96.52135224 Ry
     hartree contribution      =      56.69280422 Ry
     xc contribution           =     -25.10013348 Ry
     ewald contribution        =    -171.77862306 Ry

     total magnetization       =     2.22 Bohr mag/cell
     absolute magnetization    =     2.38 Bohr mag/cell

     convergence has been achieved in  13 iterations

     Writing all to output data dir ./tmp/fe_pbe_ci.save/ :
     XML data file, charge density, pseudopotentials, collected wavefunctions

     init_run     :      3.88s CPU      0.75s WALL (       1 calls)
     electrons    :     89.35s CPU     11.69s WALL (       1 calls)

     Called by init_run:
     wfcinit      :      3.19s CPU      0.47s WALL (       1 calls)
     wfcinit:wfcr :      3.05s CPU      0.45s WALL (      32 calls)
     potinit      :      0.13s CPU      0.02s WALL (       1 calls)
     hinit0       :      0.55s CPU      0.26s WALL (       1 calls)

     Called by electrons:
     c_bands      :     75.78s CPU      9.92s WALL (      13 calls)
     sum_band     :     12.86s CPU      1.68s WALL (      13 calls)
     v_of_rho     :      0.48s CPU      0.06s WALL (      14 calls)
     v_h          :      0.02s CPU      0.00s WALL (      14 calls)
     v_xc         :      0.46s CPU      0.06s WALL (      14 calls)
     mix_rho      :      0.20s CPU      0.02s WALL (      13 calls)

     Called by c_bands:
     init_us_2    :      1.27s CPU      0.17s WALL (     864 calls)
     cegterg      :     73.23s CPU      9.59s WALL (     416 calls)

     Called by sum_band:
     sum_band:wei :      0.02s CPU      0.00s WALL (      13 calls)
     sum_band:loo :     12.71s CPU      1.66s WALL (      13 calls)
     sum_band:buf :      0.05s CPU      0.01s WALL (     416 calls)
     sum_band:ini :      0.59s CPU      0.08s WALL (     416 calls)

     Called by *egterg:
     cdiaghg      :      1.77s CPU      0.23s WALL (    1549 calls)
     cegterg:over :      0.68s CPU      0.09s WALL (    1133 calls)
     cegterg:upda :      0.44s CPU      0.06s WALL (    1133 calls)
     cegterg:last :      0.59s CPU      0.07s WALL (     936 calls)
     h_psi        :     71.81s CPU      9.48s WALL (    1581 calls)
     g_psi        :      0.36s CPU      0.04s WALL (    1133 calls)

     Called by h_psi:
     h_psi:calbec :      0.52s CPU      0.09s WALL (    1581 calls)
     vloc_psi     :     70.63s CPU      9.31s WALL (    1581 calls)
                                        0.00s GPU  (    1581 calls)
     add_vuspsi   :      0.35s CPU      0.04s WALL (    1581 calls)

     General routines
     calbec       :      0.48s CPU      0.08s WALL (    1581 calls)
     fft          :      0.66s CPU      0.25s WALL (     263 calls)
     ffts         :      0.01s CPU      0.00s WALL (      26 calls)
     fftw         :     75.58s CPU     10.10s WALL (   33630 calls)

     Parallel routines

     PWSCF        :   1m33.51s CPU     12.52s WALL


   This run was terminated on:  21:59:34   6Jul2026            

=------------------------------------------------------------------------------=
   JOB DONE.
=------------------------------------------------------------------------------=
