2
Lattice="0.0 1.7835 1.7835 1.7835 0.0 1.7835 1.7835 1.7835 0.0" Properties=species:S:1:pos:R:3:forces:R:3 step=0 energy=-309.55917616780715 pbc="T T T"
C        0.00000000       0.00000000       0.00000000       2.50138226      -1.49689549       1.81042356
C        0.95180000       0.86180000       0.93180000      -2.50138226       1.49689549      -1.81042356
2
Lattice="0.0 1.7835 1.7835 1.7835 0.0 1.7835 1.7835 1.7835 0.0" Properties=species:S:1:pos:R:3:forces:R:3 step=1 energy=-309.6804724830925 pbc="T T T"
C        0.03573403      -0.02138422       0.02586319      -0.43078359       0.48780830      -0.44082200
C        0.91606597       0.88318422       0.90593681       0.43078359      -0.48780830       0.44082200
2
Lattice="0.0 1.7835 1.7835 1.7835 0.0 1.7835 1.7835 1.7835 0.0" Properties=species:S:1:pos:R:3:forces:R:3 step=2 energy=-309.6886355199851 pbc="T T T"
C        0.03077890      -0.01572840       0.02076749      -0.06077611       0.06053728      -0.05936294
C        0.92102110       0.87752840       0.91103251       0.06077611      -0.06053728       0.05936294
2
Lattice="0.0 1.7835 1.7835 1.7835 0.0 1.7835 1.7835 1.7835 0.0" Properties=species:S:1:pos:R:3:forces:R:3 step=3 energy=-309.68877446731744 pbc="T T T"
C        0.02996008      -0.01493241       0.01997326       0.00335816      -0.00180936       0.00282681
C        0.92183992       0.87673241       0.91182674      -0.00335816       0.00180936      -0.00282681
