
     Program PWSCF v.7.5 starts on  6Jul2026 at 18:53:27 

     This program is part of the open-source Quantum ESPRESSO suite
     for quantum simulation of materials; please cite
         "P. Giannozzi et al., J. Phys.:Condens. Matter 21 395502 (2009);
         "P. Giannozzi et al., J. Phys.:Condens. Matter 29 465901 (2017);
         "P. Giannozzi et al., J. Chem. Phys. 152 154105 (2020);
          URL http://www.quantum-espresso.org", 
     in publications or presentations arising from this work. More details at
     http://www.quantum-espresso.org/quote

     Parallel version (MPI & OpenMP), running on       8 processor cores
     Number of MPI processes:                 1
     Threads/MPI process:                     8

     MPI processes distributed on     1 nodes
     1111 MiB available memory on the printing compute node when the environment starts

     Reading input from pw.in

     Current dimensions of program PWSCF are:
     Max number of different atomic species (ntypx) = 10
     Max number of k-points (npk) =  40000
     Max angular momentum in pseudopotentials (lmaxx) =  4
     Message from routine setup:
     using ibrav=0 with symmetry is DISCOURAGED, use correct ibrav instead

     Subspace diagonalization in iterative solution of the eigenvalue problem:
     a serial algorithm will be used


     G-vector sticks info
     --------------------
     sticks:   dense  smooth     PW     G-vecs:    dense   smooth      PW
     Sum         475     475    151                 6735     6735    1139

     Using Slab Decomposition



     bravais-lattice index     =            0
     lattice parameter (alat)  =       7.5538  a.u.
     unit-cell volume          =     304.7709 (a.u.)^3
     number of atoms/cell      =            2
     number of atomic types    =            2
     number of electrons       =        18.00
     number of Kohn-Sham states=           13
     kinetic-energy cutoff     =      30.0000  Ry
     charge density cutoff     =     120.0000  Ry
     scf convergence threshold =      1.0E-12
     mixing beta               =       0.7000
     number of iterations used =            8  plain     mixing
     Exchange-correlation= PBE
                           (   1   4   3   4   0   0   0)

     celldm(1)=   7.553754  celldm(2)=   0.000000  celldm(3)=   0.000000
     celldm(4)=   0.000000  celldm(5)=   0.000000  celldm(6)=   0.000000

     crystal axes: (cart. coord. in units of alat)
               a(1) = (   0.000000   0.707107   0.707107 )  
               a(2) = (   0.707107   0.000000   0.707107 )  
               a(3) = (   0.707107   0.707107   0.000000 )  

     reciprocal axes: (cart. coord. in units 2 pi/alat)
               b(1) = ( -0.707107  0.707107  0.707107 )  
               b(2) = (  0.707107 -0.707107  0.707107 )  
               b(3) = (  0.707107  0.707107 -0.707107 )  


     PseudoPot. # 1 for Ga read from file:
     ../pseudos/Ga_ONCV_PBE-1.2.upf
     MD5 check sum: 9961a622ff199abf6dfec9a0a10b8555
     Pseudo is Norm-conserving, Zval = 13.0
     Generated using ONCVPSP code by D. R. Hamann
     Using radial grid of  602 points,  6 beta functions with: 
                l(1) =   0
                l(2) =   0
                l(3) =   1
                l(4) =   1
                l(5) =   2
                l(6) =   2

     PseudoPot. # 2 for As read from file:
     ../pseudos/As_ONCV_PBE-1.2.upf
     MD5 check sum: a2ff92a4799c87c945fff9e6739df4dd
     Pseudo is Norm-conserving, Zval =  5.0
     Generated using ONCVPSP code by D. R. Hamann
     Using radial grid of  602 points,  6 beta functions with: 
                l(1) =   0
                l(2) =   0
                l(3) =   1
                l(4) =   1
                l(5) =   2
                l(6) =   2

     atomic species   valence    mass     pseudopotential
     Ga               13.00    69.72300     Ga( 1.00)
     As                5.00    74.92200     As( 1.00)

     24 Sym. Ops. (no inversion) found


                                    s                        frac. trans.

      isym =  1     identity                                     

 cryst.   s( 1) = (     1          0          0      )
                  (     0          1          0      )
                  (     0          0          1      )

 cart.    s( 1) = (  1.0000000  0.0000000  0.0000000 )
                  (  0.0000000  1.0000000  0.0000000 )
                  (  0.0000000  0.0000000  1.0000000 )


      isym =  2     180 deg rotation - cart. axis [0,0,1]        

 cryst.   s( 2) = (     0          1         -1      )
                  (     1          0         -1      )
                  (     0          0         -1      )

 cart.    s( 2) = ( -1.0000000  0.0000000  0.0000000 )
                  (  0.0000000 -1.0000000  0.0000000 )
                  (  0.0000000  0.0000000  1.0000000 )


      isym =  3     180 deg rotation - cart. axis [0,1,0]        

 cryst.   s( 3) = (     0         -1          1      )
                  (     0         -1          0      )
                  (     1         -1          0      )

 cart.    s( 3) = ( -1.0000000  0.0000000  0.0000000 )
                  (  0.0000000  1.0000000  0.0000000 )
                  (  0.0000000  0.0000000 -1.0000000 )


      isym =  4     180 deg rotation - cart. axis [1,0,0]        

 cryst.   s( 4) = (    -1          0          0      )
                  (    -1          0          1      )
                  (    -1          1          0      )

 cart.    s( 4) = (  1.0000000  0.0000000  0.0000000 )
                  (  0.0000000 -1.0000000  0.0000000 )
                  (  0.0000000  0.0000000 -1.0000000 )


      isym =  5     120 deg rotation - cart. axis [-1,-1,-1]     

 cryst.   s( 5) = (     0          0          1      )
                  (     1          0          0      )
                  (     0          1          0      )

 cart.    s( 5) = (  0.0000000  1.0000000  0.0000000 )
                  (  0.0000000  0.0000000  1.0000000 )
                  (  1.0000000  0.0000000  0.0000000 )


      isym =  6     120 deg rotation - cart. axis [-1,1,1]       

 cryst.   s( 6) = (     1         -1          0      )
                  (     0         -1          1      )
                  (     0         -1          0      )

 cart.    s( 6) = (  0.0000000 -1.0000000  0.0000000 )
                  (  0.0000000  0.0000000  1.0000000 )
                  ( -1.0000000  0.0000000  0.0000000 )


      isym =  7     120 deg rotation - cart. axis [1,1,-1]       

 cryst.   s( 7) = (    -1          1          0      )
                  (    -1          0          0      )
                  (    -1          0          1      )

 cart.    s( 7) = (  0.0000000  1.0000000  0.0000000 )
                  (  0.0000000  0.0000000 -1.0000000 )
                  ( -1.0000000  0.0000000  0.0000000 )


      isym =  8     120 deg rotation - cart. axis [1,-1,1]       

 cryst.   s( 8) = (     0          0         -1      )
                  (     0          1         -1      )
                  (     1          0         -1      )

 cart.    s( 8) = (  0.0000000 -1.0000000  0.0000000 )
                  (  0.0000000  0.0000000 -1.0000000 )
                  (  1.0000000  0.0000000  0.0000000 )


      isym =  9     120 deg rotation - cart. axis [1,1,1]        

 cryst.   s( 9) = (     0          1          0      )
                  (     0          0          1      )
                  (     1          0          0      )

 cart.    s( 9) = (  0.0000000  0.0000000  1.0000000 )
                  (  1.0000000  0.0000000  0.0000000 )
                  (  0.0000000  1.0000000  0.0000000 )


      isym = 10     120 deg rotation - cart. axis [-1,1,-1]      

 cryst.   s(10) = (    -1          0          1      )
                  (    -1          1          0      )
                  (    -1          0          0      )

 cart.    s(10) = (  0.0000000  0.0000000  1.0000000 )
                  ( -1.0000000  0.0000000  0.0000000 )
                  (  0.0000000 -1.0000000  0.0000000 )


      isym = 11     120 deg rotation - cart. axis [1,-1,-1]      

 cryst.   s(11) = (     1          0         -1      )
                  (     0          0         -1      )
                  (     0          1         -1      )

 cart.    s(11) = (  0.0000000  0.0000000 -1.0000000 )
                  ( -1.0000000  0.0000000  0.0000000 )
                  (  0.0000000  1.0000000  0.0000000 )


      isym = 12     120 deg rotation - cart. axis [-1,-1,1]      

 cryst.   s(12) = (     0         -1          0      )
                  (     1         -1          0      )
                  (     0         -1          1      )

 cart.    s(12) = (  0.0000000  0.0000000 -1.0000000 )
                  (  1.0000000  0.0000000  0.0000000 )
                  (  0.0000000 -1.0000000  0.0000000 )


      isym = 13     inv. 180 deg rotation - cart. axis [1,1,0]   

 cryst.   s(13) = (     1          0         -1      )
                  (     0          1         -1      )
                  (     0          0         -1      )

 cart.    s(13) = (  0.0000000 -1.0000000  0.0000000 )
                  ( -1.0000000  0.0000000  0.0000000 )
                  (  0.0000000  0.0000000  1.0000000 )


      isym = 14     inv. 180 deg rotation - cart. axis [1,-1,0]  

 cryst.   s(14) = (     0          1          0      )
                  (     1          0          0      )
                  (     0          0          1      )

 cart.    s(14) = (  0.0000000  1.0000000  0.0000000 )
                  (  1.0000000  0.0000000  0.0000000 )
                  (  0.0000000  0.0000000  1.0000000 )


      isym = 15     inv.  90 deg rotation - cart. axis [0,0,-1]  

 cryst.   s(15) = (     0         -1          0      )
                  (     0         -1          1      )
                  (     1         -1          0      )

 cart.    s(15) = (  0.0000000 -1.0000000  0.0000000 )
                  (  1.0000000  0.0000000  0.0000000 )
                  (  0.0000000  0.0000000 -1.0000000 )


      isym = 16     inv.  90 deg rotation - cart. axis [0,0,1]   

 cryst.   s(16) = (    -1          0          1      )
                  (    -1          0          0      )
                  (    -1          1          0      )

 cart.    s(16) = (  0.0000000  1.0000000  0.0000000 )
                  ( -1.0000000  0.0000000  0.0000000 )
                  (  0.0000000  0.0000000 -1.0000000 )


      isym = 17     inv. 180 deg rotation - cart. axis [1,0,1]   

 cryst.   s(17) = (     1         -1          0      )
                  (     0         -1          0      )
                  (     0         -1          1      )

 cart.    s(17) = (  0.0000000  0.0000000 -1.0000000 )
                  (  0.0000000  1.0000000  0.0000000 )
                  ( -1.0000000  0.0000000  0.0000000 )


      isym = 18     inv. 180 deg rotation - cart. axis [-1,0,1]  

 cryst.   s(18) = (     0          0          1      )
                  (     0          1          0      )
                  (     1          0          0      )

 cart.    s(18) = (  0.0000000  0.0000000  1.0000000 )
                  (  0.0000000  1.0000000  0.0000000 )
                  (  1.0000000  0.0000000  0.0000000 )


      isym = 19     inv.  90 deg rotation - cart. axis [0,1,0]   

 cryst.   s(19) = (     0          0         -1      )
                  (     1          0         -1      )
                  (     0          1         -1      )

 cart.    s(19) = (  0.0000000  0.0000000 -1.0000000 )
                  (  0.0000000 -1.0000000  0.0000000 )
                  (  1.0000000  0.0000000  0.0000000 )


      isym = 20     inv.  90 deg rotation - cart. axis [0,-1,0]  

 cryst.   s(20) = (    -1          1          0      )
                  (    -1          0          1      )
                  (    -1          0          0      )

 cart.    s(20) = (  0.0000000  0.0000000  1.0000000 )
                  (  0.0000000 -1.0000000  0.0000000 )
                  ( -1.0000000  0.0000000  0.0000000 )


      isym = 21     inv. 180 deg rotation - cart. axis [0,1,1]   

 cryst.   s(21) = (    -1          0          0      )
                  (    -1          1          0      )
                  (    -1          0          1      )

 cart.    s(21) = (  1.0000000  0.0000000  0.0000000 )
                  (  0.0000000  0.0000000 -1.0000000 )
                  (  0.0000000 -1.0000000  0.0000000 )


      isym = 22     inv. 180 deg rotation - cart. axis [0,1,-1]  

 cryst.   s(22) = (     1          0          0      )
                  (     0          0          1      )
                  (     0          1          0      )

 cart.    s(22) = (  1.0000000  0.0000000  0.0000000 )
                  (  0.0000000  0.0000000  1.0000000 )
                  (  0.0000000  1.0000000  0.0000000 )


      isym = 23     inv.  90 deg rotation - cart. axis [-1,0,0]  

 cryst.   s(23) = (     0          1         -1      )
                  (     0          0         -1      )
                  (     1          0         -1      )

 cart.    s(23) = ( -1.0000000  0.0000000  0.0000000 )
                  (  0.0000000  0.0000000 -1.0000000 )
                  (  0.0000000  1.0000000  0.0000000 )


      isym = 24     inv.  90 deg rotation - cart. axis [1,0,0]   

 cryst.   s(24) = (     0         -1          1      )
                  (     1         -1          0      )
                  (     0         -1          0      )

 cart.    s(24) = ( -1.0000000  0.0000000  0.0000000 )
                  (  0.0000000  0.0000000  1.0000000 )
                  (  0.0000000 -1.0000000  0.0000000 )


   Cartesian axes

     site n.     atom                  positions (alat units)
         1        Ga     tau(   1) = (   0.0000000   0.0000000   0.0000000  )
         2        As     tau(   2) = (   0.3535534   0.3535534   0.3535534  )

   Crystallographic axes

     site n.     atom                  positions (cryst. coord.)
         1        Ga     tau(   1) = (  0.0000000  0.0000000  0.0000000  )
         2        As     tau(   2) = (  0.2500000  0.2500000  0.2500000  )

     number of k points=     3  Gaussian smearing, width (Ry)=  0.0015
                       cart. coord. in units 2pi/alat
        k(    1) = (   0.0000000   0.0000000   0.0000000), wk =   0.2500000
        k(    2) = (  -0.3535534  -0.3535534   0.3535534), wk =   1.0000000
        k(    3) = (  -0.7071068   0.0000000   0.0000000), wk =   0.7500000

                       cryst. coord.
        k(    1) = (   0.0000000   0.0000000   0.0000000), wk =   0.2500000
        k(    2) = (   0.0000000   0.0000000  -0.5000000), wk =   1.0000000
        k(    3) = (   0.0000000  -0.5000000  -0.5000000), wk =   0.7500000

     Dense  grid:     6735 G-vectors     FFT dimensions: (  27,  27,  27)

     Dynamical RAM for                 wfc:       0.17 MB

     Dynamical RAM for     wfc (w. buffer):       0.67 MB

     Dynamical RAM for           str. fact:       0.21 MB

     Dynamical RAM for           local pot:       0.00 MB

     Dynamical RAM for          nlocal pot:       0.46 MB

     Dynamical RAM for                qrad:       1.76 MB

     Dynamical RAM for          rho,v,vnew:       0.76 MB

     Dynamical RAM for               rhoin:       0.25 MB

     Dynamical RAM for            rho*nmix:       1.64 MB

     Dynamical RAM for           G-vectors:       0.44 MB

     Dynamical RAM for          h,s,v(r/c):       0.03 MB

     Dynamical RAM for          <psi|beta>:       0.01 MB

     Dynamical RAM for                 psi:       0.34 MB

     Dynamical RAM for                hpsi:       0.34 MB

     Dynamical RAM for      wfcinit/wfcrot:       0.34 MB

     Estimated static dynamical RAM per process >       5.61 MB

     Estimated max dynamical RAM per process >       7.96 MB

     Initial potential from superposition of free atoms

     starting charge      17.8922, renormalised to      18.0000

     negative rho (up, down):  2.107E-03 0.000E+00
     Starting wfcs are random

     total cpu time spent up to now is        0.6 secs

     per-process dynamical memory:    12.4 Mb

     Self-consistent Calculation

     iteration #  1     ecut=    30.00 Ry     beta= 0.70
     Davidson diagonalization with overlap

---- Real-time Memory Report at c_bands before calling an iterative solver
            54 MiB given to the printing process from OS
            12 MiB allocation reported by mallinfo(arena+hblkhd)
          1092 MiB available memory on the node where the printing process lives
------------------
     ethr =  1.00E-02,  avg # of iterations = 11.3

     negative rho (up, down):  6.309E-04 0.000E+00

     total cpu time spent up to now is        1.2 secs

     total energy              =    -136.16938832 Ry
     estimated scf accuracy    <       3.17719946 Ry

     iteration #  2     ecut=    30.00 Ry     beta= 0.70
     Davidson diagonalization with overlap

---- Real-time Memory Report at c_bands before calling an iterative solver
            57 MiB given to the printing process from OS
            13 MiB allocation reported by mallinfo(arena+hblkhd)
          1084 MiB available memory on the node where the printing process lives
------------------
     ethr =  1.00E-02,  avg # of iterations =  2.3

     negative rho (up, down):  2.993E-04 0.000E+00

     total cpu time spent up to now is        1.4 secs

     total energy              =    -136.91371757 Ry
     estimated scf accuracy    <       0.67245617 Ry

     iteration #  3     ecut=    30.00 Ry     beta= 0.70
     Davidson diagonalization with overlap

---- Real-time Memory Report at c_bands before calling an iterative solver
            58 MiB given to the printing process from OS
            14 MiB allocation reported by mallinfo(arena+hblkhd)
          1084 MiB available memory on the node where the printing process lives
------------------
     ethr =  3.74E-03,  avg # of iterations =  2.3

     negative rho (up, down):  1.038E-04 0.000E+00

     total cpu time spent up to now is        1.5 secs

     total energy              =    -137.08394618 Ry
     estimated scf accuracy    <       0.05578923 Ry

     iteration #  4     ecut=    30.00 Ry     beta= 0.70
     Davidson diagonalization with overlap

---- Real-time Memory Report at c_bands before calling an iterative solver
            58 MiB given to the printing process from OS
            14 MiB allocation reported by mallinfo(arena+hblkhd)
          1083 MiB available memory on the node where the printing process lives
------------------
     ethr =  3.10E-04,  avg # of iterations =  2.3

     negative rho (up, down):  3.834E-06 0.000E+00

     total cpu time spent up to now is        1.7 secs

     total energy              =    -137.09154283 Ry
     estimated scf accuracy    <       0.00166742 Ry

     iteration #  5     ecut=    30.00 Ry     beta= 0.70
     Davidson diagonalization with overlap

---- Real-time Memory Report at c_bands before calling an iterative solver
            58 MiB given to the printing process from OS
            14 MiB allocation reported by mallinfo(arena+hblkhd)
          1083 MiB available memory on the node where the printing process lives
------------------
     ethr =  9.26E-06,  avg # of iterations =  3.3

     total cpu time spent up to now is        1.8 secs

     total energy              =    -137.09164802 Ry
     estimated scf accuracy    <       0.00004003 Ry

     iteration #  6     ecut=    30.00 Ry     beta= 0.70
     Davidson diagonalization with overlap

---- Real-time Memory Report at c_bands before calling an iterative solver
            58 MiB given to the printing process from OS
            14 MiB allocation reported by mallinfo(arena+hblkhd)
          1083 MiB available memory on the node where the printing process lives
------------------
     ethr =  2.22E-07,  avg # of iterations =  2.7

     total cpu time spent up to now is        2.0 secs

     total energy              =    -137.09165473 Ry
     estimated scf accuracy    <       0.00000177 Ry

     iteration #  7     ecut=    30.00 Ry     beta= 0.70
     Davidson diagonalization with overlap

---- Real-time Memory Report at c_bands before calling an iterative solver
            58 MiB given to the printing process from OS
            14 MiB allocation reported by mallinfo(arena+hblkhd)
          1082 MiB available memory on the node where the printing process lives
------------------
     ethr =  9.83E-09,  avg # of iterations =  2.0

     total cpu time spent up to now is        2.2 secs

     total energy              =    -137.09165488 Ry
     estimated scf accuracy    <       0.00000006 Ry

     iteration #  8     ecut=    30.00 Ry     beta= 0.70
     Davidson diagonalization with overlap

---- Real-time Memory Report at c_bands before calling an iterative solver
            59 MiB given to the printing process from OS
            15 MiB allocation reported by mallinfo(arena+hblkhd)
          1084 MiB available memory on the node where the printing process lives
------------------
     ethr =  3.40E-10,  avg # of iterations =  2.0

     total cpu time spent up to now is        2.4 secs

     total energy              =    -137.09165490 Ry
     estimated scf accuracy    <          3.4E-09 Ry

     iteration #  9     ecut=    30.00 Ry     beta= 0.70
     Davidson diagonalization with overlap

---- Real-time Memory Report at c_bands before calling an iterative solver
            59 MiB given to the printing process from OS
            15 MiB allocation reported by mallinfo(arena+hblkhd)
          1084 MiB available memory on the node where the printing process lives
------------------
     ethr =  1.89E-11,  avg # of iterations =  1.7

     total cpu time spent up to now is        2.5 secs

     total energy              =    -137.09165490 Ry
     estimated scf accuracy    <          5.0E-10 Ry

     iteration # 10     ecut=    30.00 Ry     beta= 0.70
     Davidson diagonalization with overlap

---- Real-time Memory Report at c_bands before calling an iterative solver
            59 MiB given to the printing process from OS
            15 MiB allocation reported by mallinfo(arena+hblkhd)
          1086 MiB available memory on the node where the printing process lives
------------------
     ethr =  2.76E-12,  avg # of iterations =  2.3

     total cpu time spent up to now is        4.1 secs

     total energy              =    -137.09165490 Ry
     estimated scf accuracy    <          4.8E-12 Ry

     iteration # 11     ecut=    30.00 Ry     beta= 0.70
     Davidson diagonalization with overlap

---- Real-time Memory Report at c_bands before calling an iterative solver
            59 MiB given to the printing process from OS
            15 MiB allocation reported by mallinfo(arena+hblkhd)
          1088 MiB available memory on the node where the printing process lives
------------------
     ethr =  1.00E-13,  avg # of iterations =  1.3

     total cpu time spent up to now is        4.3 secs

     total energy              =    -137.09165490 Ry
     estimated scf accuracy    <          1.0E-12 Ry

     iteration # 12     ecut=    30.00 Ry     beta= 0.70
     Davidson diagonalization with overlap

---- Real-time Memory Report at c_bands before calling an iterative solver
            59 MiB given to the printing process from OS
            15 MiB allocation reported by mallinfo(arena+hblkhd)
          1087 MiB available memory on the node where the printing process lives
------------------
     ethr =  1.00E-13,  avg # of iterations =  1.0

     total cpu time spent up to now is        4.4 secs

     End of self-consistent calculation

          k = 0.0000 0.0000 0.0000 (   869 PWs)   bands (ev):

    -9.0580  -9.0580  -9.0580  -9.0374  -9.0374  -5.2480   7.2682   7.7698
     7.7698   7.7698  10.9767  10.9767  10.9767

     occupation numbers 
     1.0000   1.0000   1.0000   1.0000   1.0000   1.0000   1.0000   0.6667
     0.6667   0.6667   0.0000   0.0000   0.0000

          k =-0.3536-0.3536 0.3536 (   832 PWs)   bands (ev):

    -8.4539  -8.4539  -8.2970  -7.2768  -7.2768  -3.3718   0.5633   6.4687
     6.4687   8.0964  12.2180  12.2180  15.5710

     occupation numbers 
     1.0000   1.0000   1.0000   1.0000   1.0000   1.0000   1.0000   1.0000
     1.0000   0.0000   0.0000   0.0000   0.0000

          k =-0.7071 0.0000 0.0000 (   846 PWs)   bands (ev):

    -8.5356  -8.5219  -8.5094  -7.9410  -7.9410  -2.4941   0.1286   4.8621
     4.8621   9.0943   9.1998  17.3573  17.3573

     occupation numbers 
     1.0000   1.0000   1.0000   1.0000   1.0000   1.0000   1.0000   1.0000
     1.0000   0.0000   0.0000   0.0000   0.0000

     the Fermi energy is     7.7759 ev

!    total energy              =    -137.09165490 Ry
     estimated scf accuracy    <          1.4E-13 Ry
     smearing contrib. (-TS)   =      -0.00028345 Ry
     internal energy E=F+TS    =    -137.09137145 Ry

     The total energy is F=E-TS. E is the sum of the following terms:
     one-electron contribution =     -69.38024945 Ry
     hartree contribution      =      45.51560961 Ry
     xc contribution           =     -20.20509901 Ry
     ewald contribution        =     -93.02163260 Ry

     convergence has been achieved in  12 iterations

     Writing all to output data dir ./tmp/gaas_pbe_ci.save/ :
     XML data file, charge density, pseudopotentials, collected wavefunctions

     init_run     :      2.88s CPU      0.52s WALL (       1 calls)
     electrons    :     27.33s CPU      3.81s WALL (       1 calls)

     Called by init_run:
     wfcinit      :      1.75s CPU      0.23s WALL (       1 calls)
     wfcinit:wfcr :      1.71s CPU      0.22s WALL (       3 calls)
     potinit      :      0.21s CPU      0.04s WALL (       1 calls)
     hinit0       :      0.91s CPU      0.24s WALL (       1 calls)

     Called by electrons:
     c_bands      :     24.28s CPU      3.41s WALL (      12 calls)
     sum_band     :      2.40s CPU      0.32s WALL (      12 calls)
     v_of_rho     :      0.45s CPU      0.06s WALL (      13 calls)
     v_h          :      0.04s CPU      0.01s WALL (      13 calls)
     v_xc         :      0.41s CPU      0.05s WALL (      13 calls)
     mix_rho      :      0.15s CPU      0.02s WALL (      12 calls)

     Called by c_bands:
     init_us_2    :      0.34s CPU      0.04s WALL (      75 calls)
     cegterg      :     23.48s CPU      3.31s WALL (      36 calls)

     Called by sum_band:
     sum_band:wei :      0.00s CPU      0.00s WALL (      12 calls)
     sum_band:loo :      2.30s CPU      0.31s WALL (      12 calls)
     sum_band:buf :      0.01s CPU      0.00s WALL (      36 calls)
     sum_band:ini :      0.14s CPU      0.02s WALL (      36 calls)

     Called by *egterg:
     cdiaghg      :      0.27s CPU      0.04s WALL (     140 calls)
     cegterg:over :      0.15s CPU      0.02s WALL (     104 calls)
     cegterg:upda :      0.06s CPU      0.01s WALL (     104 calls)
     cegterg:last :      0.12s CPU      0.02s WALL (      89 calls)
     h_psi        :     24.40s CPU      3.43s WALL (     143 calls)
     g_psi        :      0.07s CPU      0.01s WALL (     104 calls)

     Called by h_psi:
     h_psi:calbec :      0.17s CPU      0.02s WALL (     143 calls)
     vloc_psi     :     24.08s CPU      3.39s WALL (     143 calls)
                                        0.00s GPU  (     143 calls)
     add_vuspsi   :      0.11s CPU      0.02s WALL (     143 calls)

     General routines
     calbec       :      0.17s CPU      0.02s WALL (     143 calls)
     fft          :      1.04s CPU      0.19s WALL (     129 calls)
     ffts         :      0.01s CPU      0.00s WALL (      12 calls)
     fftw         :     24.97s CPU      3.50s WALL (    3284 calls)

     Parallel routines

     PWSCF        :     30.37s CPU      4.43s WALL


   This run was terminated on:  18:53:31   6Jul2026            

=------------------------------------------------------------------------------=
   JOB DONE.
=------------------------------------------------------------------------------=
