
     Program PWSCF v.7.5 starts on  6Jul2026 at 16:52: 8 

     This program is part of the open-source Quantum ESPRESSO suite
     for quantum simulation of materials; please cite
         "P. Giannozzi et al., J. Phys.:Condens. Matter 21 395502 (2009);
         "P. Giannozzi et al., J. Phys.:Condens. Matter 29 465901 (2017);
         "P. Giannozzi et al., J. Chem. Phys. 152 154105 (2020);
          URL http://www.quantum-espresso.org", 
     in publications or presentations arising from this work. More details at
     http://www.quantum-espresso.org/quote

     Parallel version (MPI & OpenMP), running on       8 processor cores
     Number of MPI processes:                 1
     Threads/MPI process:                     8

     MPI processes distributed on     1 nodes
     15995 MiB available memory on the printing compute node when the environment starts

     Reading input from pw.in

     Current dimensions of program PWSCF are:
     Max number of different atomic species (ntypx) = 10
     Max number of k-points (npk) =  40000
     Max angular momentum in pseudopotentials (lmaxx) =  4

     IMPORTANT: XC functional enforced from input :
     Exchange-correlation= SLA+PW+NOGX+NOGC
                           (   1   4   0   0   0   0   0)
     Any further DFT definition will be discarded
     Please, verify this is what you really want


     Subspace diagonalization in iterative solution of the eigenvalue problem:
     a serial algorithm will be used


     G-vector sticks info
     --------------------
     sticks:   dense  smooth     PW     G-vecs:    dense   smooth      PW
     Sum         211     211     73                 2109     2109     411

     Using Slab Decomposition



     bravais-lattice index     =            0
     lattice parameter (alat)  =       7.2558  a.u.
     unit-cell volume          =     270.1072 (a.u.)^3
     number of atoms/cell      =            2
     number of atomic types    =            1
     number of electrons       =         8.00
     number of Kohn-Sham states=            4
     kinetic-energy cutoff     =      15.0000  Ry
     charge density cutoff     =      60.0000  Ry
     scf convergence threshold =      1.0E-12
     mixing beta               =       0.7000
     number of iterations used =            8  plain     mixing
     Exchange-correlation= SLA+PW+NOGX+NOGC
                           (   1   4   0   0   0   0   0)

     celldm(1)=   7.255773  celldm(2)=   0.000000  celldm(3)=   0.000000
     celldm(4)=   0.000000  celldm(5)=   0.000000  celldm(6)=   0.000000

     crystal axes: (cart. coord. in units of alat)
               a(1) = (   0.000000   0.707107   0.707107 )  
               a(2) = (   0.707107   0.000000   0.707107 )  
               a(3) = (   0.707107   0.707107   0.000000 )  

     reciprocal axes: (cart. coord. in units 2 pi/alat)
               b(1) = ( -0.707107  0.707107  0.707107 )  
               b(2) = (  0.707107 -0.707107  0.707107 )  
               b(3) = (  0.707107  0.707107 -0.707107 )  


     PseudoPot. # 1 for Si read from file:
     ../pseudos/Si_ONCV_PBE-1.2.upf
     MD5 check sum: 7f029a58b69e3aa87b46a36c608bf45e
     Pseudo is Norm-conserving, Zval =  4.0
     Generated using ONCVPSP code by D. R. Hamann
     Using radial grid of  602 points,  4 beta functions with: 
                l(1) =   0
                l(2) =   0
                l(3) =   1
                l(4) =   1

     atomic species   valence    mass     pseudopotential
     Si                4.00    28.08550     Si( 1.00)

     No symmetry found


                                    s                        frac. trans.

      isym =  1     identity                                     

 cryst.   s( 1) = (     1          0          0      )
                  (     0          1          0      )
                  (     0          0          1      )

 cart.    s( 1) = (  1.0000000  0.0000000  0.0000000 )
                  (  0.0000000  1.0000000  0.0000000 )
                  (  0.0000000  0.0000000  1.0000000 )


   Cartesian axes

     site n.     atom                  positions (alat units)
         1        Si     tau(   1) = (   0.0000000   0.0000000   0.0000000  )
         2        Si     tau(   2) = (   0.3641600   0.3500179   0.3535534  )

   Crystallographic axes

     site n.     atom                  positions (cryst. coord.)
         1        Si     tau(   1) = (  0.0000000  0.0000000  0.0000000  )
         2        Si     tau(   2) = (  0.2400000  0.2600000  0.2550000  )

     number of k points=     8
                       cart. coord. in units 2pi/alat
        k(    1) = (   0.0000000   0.0000000   0.0000000), wk =   0.2500000
        k(    2) = (  -0.3535534  -0.3535534   0.3535534), wk =   0.2500000
        k(    3) = (  -0.7071068   0.0000000   0.0000000), wk =   0.2500000
        k(    4) = (   0.3535534   0.3535534   0.3535534), wk =   0.2500000
        k(    5) = (   0.3535534  -0.3535534  -0.3535534), wk =   0.2500000
        k(    6) = (  -0.3535534   0.3535534  -0.3535534), wk =   0.2500000
        k(    7) = (   0.0000000  -0.7071068   0.0000000), wk =   0.2500000
        k(    8) = (   0.0000000   0.0000000  -0.7071068), wk =   0.2500000

                       cryst. coord.
        k(    1) = (   0.0000000   0.0000000   0.0000000), wk =   0.2500000
        k(    2) = (   0.0000000   0.0000000  -0.5000000), wk =   0.2500000
        k(    3) = (   0.0000000  -0.5000000  -0.5000000), wk =   0.2500000
        k(    4) = (   0.5000000   0.5000000   0.5000000), wk =   0.2500000
        k(    5) = (  -0.5000000   0.0000000   0.0000000), wk =   0.2500000
        k(    6) = (   0.0000000  -0.5000000   0.0000000), wk =   0.2500000
        k(    7) = (  -0.5000000   0.0000000  -0.5000000), wk =   0.2500000
        k(    8) = (  -0.5000000  -0.5000000   0.0000000), wk =   0.2500000

     Dense  grid:     2109 G-vectors     FFT dimensions: (  18,  18,  18)

     Dynamical RAM for                 wfc:       0.02 MB

     Dynamical RAM for     wfc (w. buffer):       0.15 MB

     Dynamical RAM for           str. fact:       0.03 MB

     Dynamical RAM for           local pot:       0.00 MB

     Dynamical RAM for          nlocal pot:       0.06 MB

     Dynamical RAM for                qrad:       0.18 MB

     Dynamical RAM for          rho,v,vnew:       0.23 MB

     Dynamical RAM for               rhoin:       0.08 MB

     Dynamical RAM for            rho*nmix:       0.51 MB

     Dynamical RAM for           G-vectors:       0.14 MB

     Dynamical RAM for          h,s,v(r/c):       0.00 MB

     Dynamical RAM for          <psi|beta>:       0.00 MB

     Dynamical RAM for                 psi:       0.03 MB

     Dynamical RAM for                hpsi:       0.03 MB

     Dynamical RAM for      wfcinit/wfcrot:       0.03 MB

     Estimated static dynamical RAM per process >       1.15 MB

     Estimated max dynamical RAM per process >       1.73 MB

     Initial potential from superposition of free atoms

     starting charge       7.9075, renormalised to       8.0000
     Starting wfcs are random

     total cpu time spent up to now is        3.4 secs

     per-process dynamical memory:     8.3 Mb

     Self-consistent Calculation

     iteration #  1     ecut=    15.00 Ry     beta= 0.70
     Davidson diagonalization with overlap

---- Real-time Memory Report at c_bands before calling an iterative solver
            50 MiB given to the printing process from OS
             8 MiB allocation reported by mallinfo(arena+hblkhd)
         16015 MiB available memory on the node where the printing process lives
------------------
     ethr =  1.00E-02,  avg # of iterations =  7.8

     total cpu time spent up to now is        5.0 secs

     total energy              =     -15.50825552 Ry
     estimated scf accuracy    <       0.09336760 Ry

     iteration #  2     ecut=    15.00 Ry     beta= 0.70
     Davidson diagonalization with overlap

---- Real-time Memory Report at c_bands before calling an iterative solver
            51 MiB given to the printing process from OS
             8 MiB allocation reported by mallinfo(arena+hblkhd)
         16030 MiB available memory on the node where the printing process lives
------------------
     ethr =  1.17E-03,  avg # of iterations =  2.9

     total cpu time spent up to now is        5.4 secs

     total energy              =     -15.52913717 Ry
     estimated scf accuracy    <       0.00403340 Ry

     iteration #  3     ecut=    15.00 Ry     beta= 0.70
     Davidson diagonalization with overlap

---- Real-time Memory Report at c_bands before calling an iterative solver
            51 MiB given to the printing process from OS
             8 MiB allocation reported by mallinfo(arena+hblkhd)
         16030 MiB available memory on the node where the printing process lives
------------------
     ethr =  5.04E-05,  avg # of iterations =  4.1

     total cpu time spent up to now is        6.1 secs

     total energy              =     -15.53220116 Ry
     estimated scf accuracy    <       0.00025456 Ry

     iteration #  4     ecut=    15.00 Ry     beta= 0.70
     Davidson diagonalization with overlap

---- Real-time Memory Report at c_bands before calling an iterative solver
            51 MiB given to the printing process from OS
             8 MiB allocation reported by mallinfo(arena+hblkhd)
         16027 MiB available memory on the node where the printing process lives
------------------
     ethr =  3.18E-06,  avg # of iterations =  3.6

     total cpu time spent up to now is        6.8 secs

     total energy              =     -15.53232875 Ry
     estimated scf accuracy    <       0.00001971 Ry

     iteration #  5     ecut=    15.00 Ry     beta= 0.70
     Davidson diagonalization with overlap

---- Real-time Memory Report at c_bands before calling an iterative solver
            51 MiB given to the printing process from OS
             8 MiB allocation reported by mallinfo(arena+hblkhd)
         16034 MiB available memory on the node where the printing process lives
------------------
     ethr =  2.46E-07,  avg # of iterations =  3.9

     total cpu time spent up to now is        7.4 secs

     total energy              =     -15.53233545 Ry
     estimated scf accuracy    <       0.00000047 Ry

     iteration #  6     ecut=    15.00 Ry     beta= 0.70
     Davidson diagonalization with overlap

---- Real-time Memory Report at c_bands before calling an iterative solver
            51 MiB given to the printing process from OS
             9 MiB allocation reported by mallinfo(arena+hblkhd)
         16036 MiB available memory on the node where the printing process lives
------------------
     ethr =  5.93E-09,  avg # of iterations =  3.5

     total cpu time spent up to now is        7.9 secs

     total energy              =     -15.53233580 Ry
     estimated scf accuracy    <       0.00000002 Ry

     iteration #  7     ecut=    15.00 Ry     beta= 0.70
     Davidson diagonalization with overlap

---- Real-time Memory Report at c_bands before calling an iterative solver
            52 MiB given to the printing process from OS
             9 MiB allocation reported by mallinfo(arena+hblkhd)
         16039 MiB available memory on the node where the printing process lives
------------------
     ethr =  3.06E-10,  avg # of iterations =  4.1

     total cpu time spent up to now is        8.9 secs

     total energy              =     -15.53233582 Ry
     estimated scf accuracy    <          2.7E-09 Ry

     iteration #  8     ecut=    15.00 Ry     beta= 0.70
     Davidson diagonalization with overlap

---- Real-time Memory Report at c_bands before calling an iterative solver
            52 MiB given to the printing process from OS
             9 MiB allocation reported by mallinfo(arena+hblkhd)
         16038 MiB available memory on the node where the printing process lives
------------------
     ethr =  3.38E-11,  avg # of iterations =  3.1

     total cpu time spent up to now is        9.9 secs

     total energy              =     -15.53233582 Ry
     estimated scf accuracy    <          2.4E-10 Ry

     iteration #  9     ecut=    15.00 Ry     beta= 0.70
     Davidson diagonalization with overlap

---- Real-time Memory Report at c_bands before calling an iterative solver
            52 MiB given to the printing process from OS
             9 MiB allocation reported by mallinfo(arena+hblkhd)
         16052 MiB available memory on the node where the printing process lives
------------------
     ethr =  3.02E-12,  avg # of iterations =  4.0

     total cpu time spent up to now is       10.5 secs

     total energy              =     -15.53233582 Ry
     estimated scf accuracy    <          5.1E-11 Ry

     iteration # 10     ecut=    15.00 Ry     beta= 0.70
     Davidson diagonalization with overlap

---- Real-time Memory Report at c_bands before calling an iterative solver
            52 MiB given to the printing process from OS
             9 MiB allocation reported by mallinfo(arena+hblkhd)
         16063 MiB available memory on the node where the printing process lives
------------------
     ethr =  6.35E-13,  avg # of iterations =  2.6

     total cpu time spent up to now is       11.3 secs

     End of self-consistent calculation

          k = 0.0000 0.0000 0.0000 (   283 PWs)   bands (ev):

    -5.5520   6.3551   6.5695   6.7778

     occupation numbers 
     1.0000   1.0000   1.0000   1.0000

          k =-0.3536-0.3536 0.3536 (   266 PWs)   bands (ev):

    -3.1152  -0.6642   5.2061   5.4544

     occupation numbers 
     1.0000   1.0000   1.0000   1.0000

          k =-0.7071 0.0000 0.0000 (   254 PWs)   bands (ev):

    -1.4546  -1.1919   3.5085   3.6428

     occupation numbers 
     1.0000   1.0000   1.0000   1.0000

          k = 0.3536 0.3536 0.3536 (   266 PWs)   bands (ev):

    -3.1795  -0.5330   5.1723   5.4309

     occupation numbers 
     1.0000   1.0000   1.0000   1.0000

          k = 0.3536-0.3536-0.3536 (   266 PWs)   bands (ev):

    -3.2096  -0.4694   5.1900   5.3813

     occupation numbers 
     1.0000   1.0000   1.0000   1.0000

          k =-0.3536 0.3536-0.3536 (   266 PWs)   bands (ev):

    -3.0806  -0.7317   5.2525   5.4332

     occupation numbers 
     1.0000   1.0000   1.0000   1.0000

          k = 0.0000-0.7071 0.0000 (   254 PWs)   bands (ev):

    -1.3704  -1.2827   3.5584   3.6030

     occupation numbers 
     1.0000   1.0000   1.0000   1.0000

          k = 0.0000 0.0000-0.7071 (   254 PWs)   bands (ev):

    -1.3301  -1.3237   3.5790   3.5837

     occupation numbers 
     1.0000   1.0000   1.0000   1.0000

     highest occupied level (ev):     6.7778

!    total energy              =     -15.53233582 Ry
     estimated scf accuracy    <          7.2E-13 Ry

     The total energy is the sum of the following terms:
     one-electron contribution =       4.88122102 Ry
     hartree contribution      =       1.22346734 Ry
     xc contribution           =      -4.83971243 Ry
     ewald contribution        =     -16.79731175 Ry

     convergence has been achieved in  10 iterations

     Forces acting on atoms (cartesian axes, Ry/au):

     atom    1 type  1   force =     0.02810251   -0.00939296    0.00086302
     atom    2 type  1   force =    -0.02810251    0.00939296   -0.00086302
     The non-local contrib.  to forces
     atom    1 type  1   force =     0.03484288   -0.01165609    0.00117552
     atom    2 type  1   force =    -0.03483767    0.01165467   -0.00117795
     The ionic contribution  to forces
     atom    1 type  1   force =     0.03814853   -0.01275394    0.00175081
     atom    2 type  1   force =    -0.03814853    0.01275394   -0.00175081
     The local contribution  to forces
     atom    1 type  1   force =    -0.04488735    0.01501684   -0.00206381
     atom    2 type  1   force =     0.04488511   -0.01501584    0.00206528
     The core correction contribution to forces
     atom    1 type  1   force =     0.00000000    0.00000000    0.00000000
     atom    2 type  1   force =     0.00000000    0.00000000    0.00000000
     The Hubbard contrib.    to forces
     atom    1 type  1   force =     0.00000000    0.00000000    0.00000000
     atom    2 type  1   force =     0.00000000    0.00000000    0.00000000
     The SCF correction term to forces
     atom    1 type  1   force =    -0.00000023    0.00000005   -0.00000001
     atom    2 type  1   force =    -0.00000011    0.00000001   -0.00000002

     Total force =     0.041922     Total SCF correction =     0.000000

     Writing all to output data dir ./tmp/si_forces_ci.save/ :
     XML data file, charge density, pseudopotentials, collected wavefunctions

     init_run     :     18.19s CPU      3.41s WALL (       1 calls)
     electrons    :     42.48s CPU      7.90s WALL (       1 calls)
     forces       :      1.67s CPU      0.29s WALL (       1 calls)

     Called by init_run:
     wfcinit      :     10.71s CPU      1.99s WALL (       1 calls)
     wfcinit:wfcr :     10.69s CPU      1.99s WALL (       8 calls)
     potinit      :      0.14s CPU      0.02s WALL (       1 calls)
     hinit0       :      7.35s CPU      1.39s WALL (       1 calls)

     Called by electrons:
     c_bands      :     35.77s CPU      6.64s WALL (      10 calls)
     sum_band     :      6.59s CPU      1.24s WALL (      10 calls)
     v_of_rho     :      0.03s CPU      0.01s WALL (      11 calls)
     v_h          :      0.02s CPU      0.00s WALL (      11 calls)
     v_xc         :      0.01s CPU      0.00s WALL (      11 calls)
     mix_rho      :      0.07s CPU      0.01s WALL (      10 calls)

     Called by c_bands:
     init_us_2    :      0.18s CPU      0.02s WALL (     176 calls)
     cegterg      :     35.53s CPU      6.60s WALL (      80 calls)

     Called by sum_band:
     sum_band:wei :      0.00s CPU      0.00s WALL (      10 calls)
     sum_band:loo :      6.51s CPU      1.22s WALL (      10 calls)
     sum_band:buf :      0.01s CPU      0.00s WALL (      80 calls)
     sum_band:ini :      0.09s CPU      0.01s WALL (      80 calls)

     Called by *egterg:
     cdiaghg      :      0.24s CPU      0.03s WALL (     397 calls)
     cegterg:over :      0.09s CPU      0.01s WALL (     317 calls)
     cegterg:upda :      0.58s CPU      0.12s WALL (     317 calls)
     cegterg:last :      0.06s CPU      0.01s WALL (     248 calls)
     h_psi        :     45.02s CPU      8.39s WALL (     405 calls)
     g_psi        :      0.02s CPU      0.00s WALL (     317 calls)

     Called by h_psi:
     h_psi:calbec :      0.13s CPU      0.02s WALL (     405 calls)
     vloc_psi     :     44.43s CPU      8.30s WALL (     405 calls)
                                        0.00s GPU  (     405 calls)
     add_vuspsi   :      0.08s CPU      0.01s WALL (     405 calls)

     General routines
     calbec       :      0.10s CPU      0.02s WALL (     437 calls)
     fft          :      7.46s CPU      1.39s WALL (      34 calls)
     ffts         :      0.02s CPU      0.00s WALL (      10 calls)
     fftw         :     48.93s CPU      9.30s WALL (    2778 calls)

     Parallel routines

     PWSCF        :   1m 2.71s CPU     11.67s WALL


   This run was terminated on:  16:52:19   6Jul2026            

=------------------------------------------------------------------------------=
   JOB DONE.
=------------------------------------------------------------------------------=
