
     Program PWSCF v.7.5 starts on  7Jul2026 at  9:25:35 

     This program is part of the open-source Quantum ESPRESSO suite
     for quantum simulation of materials; please cite
         "P. Giannozzi et al., J. Phys.:Condens. Matter 21 395502 (2009);
         "P. Giannozzi et al., J. Phys.:Condens. Matter 29 465901 (2017);
         "P. Giannozzi et al., J. Chem. Phys. 152 154105 (2020);
          URL http://www.quantum-espresso.org", 
     in publications or presentations arising from this work. More details at
     http://www.quantum-espresso.org/quote

     Parallel version (MPI & OpenMP), running on       8 processor cores
     Number of MPI processes:                 1
     Threads/MPI process:                     8

     MPI processes distributed on     1 nodes
     19648 MiB available memory on the printing compute node when the environment starts

     Reading input from pw.in

     Current dimensions of program PWSCF are:
     Max number of different atomic species (ntypx) = 10
     Max number of k-points (npk) =  40000
     Max angular momentum in pseudopotentials (lmaxx) =  4
Error reading attribute index: expected integer, found *
Error reading attribute index: expected integer, found *
     Message from routine setup:
     using ibrav=0 with symmetry is DISCOURAGED, use correct ibrav instead

     Subspace diagonalization in iterative solution of the eigenvalue problem:
     a serial algorithm will be used


     G-vector sticks info
     --------------------
     sticks:   dense  smooth     PW     G-vecs:    dense   smooth      PW
     Sum         637     637    187                10417    10417    1687

     Using Slab Decomposition



     bravais-lattice index     =            0
     lattice parameter (alat)  =       7.5538  a.u.
     unit-cell volume          =     304.7709 (a.u.)^3
     number of atoms/cell      =            2
     number of atomic types    =            2
     number of electrons       =        18.00
     number of Kohn-Sham states=           26
     kinetic-energy cutoff     =      40.0000  Ry
     charge density cutoff     =     160.0000  Ry
     scf convergence threshold =      1.0E-10
     mixing beta               =       0.7000
     number of iterations used =            8  plain     mixing
     Exchange-correlation= PBE
                           (   1   4   3   4   0   0   0)
     Non magnetic calculation with spin-orbit


     celldm(1)=   7.553754  celldm(2)=   0.000000  celldm(3)=   0.000000
     celldm(4)=   0.000000  celldm(5)=   0.000000  celldm(6)=   0.000000

     crystal axes: (cart. coord. in units of alat)
               a(1) = (   0.000000   0.707107   0.707107 )  
               a(2) = (   0.707107   0.000000   0.707107 )  
               a(3) = (   0.707107   0.707107   0.000000 )  

     reciprocal axes: (cart. coord. in units 2 pi/alat)
               b(1) = ( -0.707107  0.707107  0.707107 )  
               b(2) = (  0.707107 -0.707107  0.707107 )  
               b(3) = (  0.707107  0.707107 -0.707107 )  


     PseudoPot. # 1 for Ga read from file:
     ../pseudos/Ga_ONCV_PBE_FR-1.0.upf
     MD5 check sum: d39f1e4d2c0a341da0a8fddc24729b08
     Pseudo is Norm-conserving, Zval = 13.0
     Generated using ONCVPSP code by D. R. Hamann
     Using radial grid of  602 points, 10 beta functions with: 
                l(1) =   0
                l(2) =   0
                l(3) =   1
                l(4) =   1
                l(5) =   1
                l(6) =   1
                l(7) =   2
                l(8) =   2
                l(9) =   2
               l(10) =   2

     PseudoPot. # 2 for As read from file:
     ../pseudos/As_ONCV_PBE_FR-1.1.upf
     MD5 check sum: 8b5fe90b88f0f05275d1b6c116c34ad8
     Pseudo is Norm-conserving, Zval =  5.0
     Generated using ONCVPSP code by D. R. Hamann
     Using radial grid of  602 points, 10 beta functions with: 
                l(1) =   0
                l(2) =   0
                l(3) =   1
                l(4) =   1
                l(5) =   1
                l(6) =   1
                l(7) =   2
                l(8) =   2
                l(9) =   2
               l(10) =   2

     atomic species   valence    mass     pseudopotential
     Ga               13.00    69.72300     Ga( 1.00)
     As                5.00    74.92200     As( 1.00)

     24 Sym. Ops. (no inversion) found


                                    s                        frac. trans.

      isym =  1     identity                                     

 cryst.   s( 1) = (     1          0          0      )
                  (     0          1          0      )
                  (     0          0          1      )

 cart.    s( 1) = (  1.0000000  0.0000000  0.0000000 )
                  (  0.0000000  1.0000000  0.0000000 )
                  (  0.0000000  0.0000000  1.0000000 )


      isym =  2     180 deg rotation - cart. axis [0,0,1]        

 cryst.   s( 2) = (     0          1         -1      )
                  (     1          0         -1      )
                  (     0          0         -1      )

 cart.    s( 2) = ( -1.0000000  0.0000000  0.0000000 )
                  (  0.0000000 -1.0000000  0.0000000 )
                  (  0.0000000  0.0000000  1.0000000 )


      isym =  3     180 deg rotation - cart. axis [0,1,0]        

 cryst.   s( 3) = (     0         -1          1      )
                  (     0         -1          0      )
                  (     1         -1          0      )

 cart.    s( 3) = ( -1.0000000  0.0000000  0.0000000 )
                  (  0.0000000  1.0000000  0.0000000 )
                  (  0.0000000  0.0000000 -1.0000000 )


      isym =  4     180 deg rotation - cart. axis [1,0,0]        

 cryst.   s( 4) = (    -1          0          0      )
                  (    -1          0          1      )
                  (    -1          1          0      )

 cart.    s( 4) = (  1.0000000  0.0000000  0.0000000 )
                  (  0.0000000 -1.0000000  0.0000000 )
                  (  0.0000000  0.0000000 -1.0000000 )


      isym =  5     120 deg rotation - cart. axis [-1,-1,-1]     

 cryst.   s( 5) = (     0          0          1      )
                  (     1          0          0      )
                  (     0          1          0      )

 cart.    s( 5) = (  0.0000000  1.0000000  0.0000000 )
                  (  0.0000000  0.0000000  1.0000000 )
                  (  1.0000000  0.0000000  0.0000000 )


      isym =  6     120 deg rotation - cart. axis [-1,1,1]       

 cryst.   s( 6) = (     1         -1          0      )
                  (     0         -1          1      )
                  (     0         -1          0      )

 cart.    s( 6) = (  0.0000000 -1.0000000  0.0000000 )
                  (  0.0000000  0.0000000  1.0000000 )
                  ( -1.0000000  0.0000000  0.0000000 )


      isym =  7     120 deg rotation - cart. axis [1,1,-1]       

 cryst.   s( 7) = (    -1          1          0      )
                  (    -1          0          0      )
                  (    -1          0          1      )

 cart.    s( 7) = (  0.0000000  1.0000000  0.0000000 )
                  (  0.0000000  0.0000000 -1.0000000 )
                  ( -1.0000000  0.0000000  0.0000000 )


      isym =  8     120 deg rotation - cart. axis [1,-1,1]       

 cryst.   s( 8) = (     0          0         -1      )
                  (     0          1         -1      )
                  (     1          0         -1      )

 cart.    s( 8) = (  0.0000000 -1.0000000  0.0000000 )
                  (  0.0000000  0.0000000 -1.0000000 )
                  (  1.0000000  0.0000000  0.0000000 )


      isym =  9     120 deg rotation - cart. axis [1,1,1]        

 cryst.   s( 9) = (     0          1          0      )
                  (     0          0          1      )
                  (     1          0          0      )

 cart.    s( 9) = (  0.0000000  0.0000000  1.0000000 )
                  (  1.0000000  0.0000000  0.0000000 )
                  (  0.0000000  1.0000000  0.0000000 )


      isym = 10     120 deg rotation - cart. axis [-1,1,-1]      

 cryst.   s(10) = (    -1          0          1      )
                  (    -1          1          0      )
                  (    -1          0          0      )

 cart.    s(10) = (  0.0000000  0.0000000  1.0000000 )
                  ( -1.0000000  0.0000000  0.0000000 )
                  (  0.0000000 -1.0000000  0.0000000 )


      isym = 11     120 deg rotation - cart. axis [1,-1,-1]      

 cryst.   s(11) = (     1          0         -1      )
                  (     0          0         -1      )
                  (     0          1         -1      )

 cart.    s(11) = (  0.0000000  0.0000000 -1.0000000 )
                  ( -1.0000000  0.0000000  0.0000000 )
                  (  0.0000000  1.0000000  0.0000000 )


      isym = 12     120 deg rotation - cart. axis [-1,-1,1]      

 cryst.   s(12) = (     0         -1          0      )
                  (     1         -1          0      )
                  (     0         -1          1      )

 cart.    s(12) = (  0.0000000  0.0000000 -1.0000000 )
                  (  1.0000000  0.0000000  0.0000000 )
                  (  0.0000000 -1.0000000  0.0000000 )


      isym = 13     inv. 180 deg rotation - cart. axis [1,1,0]   

 cryst.   s(13) = (     1          0         -1      )
                  (     0          1         -1      )
                  (     0          0         -1      )

 cart.    s(13) = (  0.0000000 -1.0000000  0.0000000 )
                  ( -1.0000000  0.0000000  0.0000000 )
                  (  0.0000000  0.0000000  1.0000000 )


      isym = 14     inv. 180 deg rotation - cart. axis [1,-1,0]  

 cryst.   s(14) = (     0          1          0      )
                  (     1          0          0      )
                  (     0          0          1      )

 cart.    s(14) = (  0.0000000  1.0000000  0.0000000 )
                  (  1.0000000  0.0000000  0.0000000 )
                  (  0.0000000  0.0000000  1.0000000 )


      isym = 15     inv.  90 deg rotation - cart. axis [0,0,-1]  

 cryst.   s(15) = (     0         -1          0      )
                  (     0         -1          1      )
                  (     1         -1          0      )

 cart.    s(15) = (  0.0000000 -1.0000000  0.0000000 )
                  (  1.0000000  0.0000000  0.0000000 )
                  (  0.0000000  0.0000000 -1.0000000 )


      isym = 16     inv.  90 deg rotation - cart. axis [0,0,1]   

 cryst.   s(16) = (    -1          0          1      )
                  (    -1          0          0      )
                  (    -1          1          0      )

 cart.    s(16) = (  0.0000000  1.0000000  0.0000000 )
                  ( -1.0000000  0.0000000  0.0000000 )
                  (  0.0000000  0.0000000 -1.0000000 )


      isym = 17     inv. 180 deg rotation - cart. axis [1,0,1]   

 cryst.   s(17) = (     1         -1          0      )
                  (     0         -1          0      )
                  (     0         -1          1      )

 cart.    s(17) = (  0.0000000  0.0000000 -1.0000000 )
                  (  0.0000000  1.0000000  0.0000000 )
                  ( -1.0000000  0.0000000  0.0000000 )


      isym = 18     inv. 180 deg rotation - cart. axis [-1,0,1]  

 cryst.   s(18) = (     0          0          1      )
                  (     0          1          0      )
                  (     1          0          0      )

 cart.    s(18) = (  0.0000000  0.0000000  1.0000000 )
                  (  0.0000000  1.0000000  0.0000000 )
                  (  1.0000000  0.0000000  0.0000000 )


      isym = 19     inv.  90 deg rotation - cart. axis [0,1,0]   

 cryst.   s(19) = (     0          0         -1      )
                  (     1          0         -1      )
                  (     0          1         -1      )

 cart.    s(19) = (  0.0000000  0.0000000 -1.0000000 )
                  (  0.0000000 -1.0000000  0.0000000 )
                  (  1.0000000  0.0000000  0.0000000 )


      isym = 20     inv.  90 deg rotation - cart. axis [0,-1,0]  

 cryst.   s(20) = (    -1          1          0      )
                  (    -1          0          1      )
                  (    -1          0          0      )

 cart.    s(20) = (  0.0000000  0.0000000  1.0000000 )
                  (  0.0000000 -1.0000000  0.0000000 )
                  ( -1.0000000  0.0000000  0.0000000 )


      isym = 21     inv. 180 deg rotation - cart. axis [0,1,1]   

 cryst.   s(21) = (    -1          0          0      )
                  (    -1          1          0      )
                  (    -1          0          1      )

 cart.    s(21) = (  1.0000000  0.0000000  0.0000000 )
                  (  0.0000000  0.0000000 -1.0000000 )
                  (  0.0000000 -1.0000000  0.0000000 )


      isym = 22     inv. 180 deg rotation - cart. axis [0,1,-1]  

 cryst.   s(22) = (     1          0          0      )
                  (     0          0          1      )
                  (     0          1          0      )

 cart.    s(22) = (  1.0000000  0.0000000  0.0000000 )
                  (  0.0000000  0.0000000  1.0000000 )
                  (  0.0000000  1.0000000  0.0000000 )


      isym = 23     inv.  90 deg rotation - cart. axis [-1,0,0]  

 cryst.   s(23) = (     0          1         -1      )
                  (     0          0         -1      )
                  (     1          0         -1      )

 cart.    s(23) = ( -1.0000000  0.0000000  0.0000000 )
                  (  0.0000000  0.0000000 -1.0000000 )
                  (  0.0000000  1.0000000  0.0000000 )


      isym = 24     inv.  90 deg rotation - cart. axis [1,0,0]   

 cryst.   s(24) = (     0         -1          1      )
                  (     1         -1          0      )
                  (     0         -1          0      )

 cart.    s(24) = ( -1.0000000  0.0000000  0.0000000 )
                  (  0.0000000  0.0000000  1.0000000 )
                  (  0.0000000 -1.0000000  0.0000000 )


   Cartesian axes

     site n.     atom                  positions (alat units)
         1        Ga     tau(   1) = (   0.0000000   0.0000000   0.0000000  )
         2        As     tau(   2) = (   0.3535534   0.3535534   0.3535534  )

   Crystallographic axes

     site n.     atom                  positions (cryst. coord.)
         1        Ga     tau(   1) = (  0.0000000  0.0000000  0.0000000  )
         2        As     tau(   2) = (  0.2500000  0.2500000  0.2500000  )

     number of k points=     3  Gaussian smearing, width (Ry)=  0.0073
                       cart. coord. in units 2pi/alat
        k(    1) = (   0.0000000   0.0000000   0.0000000), wk =   0.1250000
        k(    2) = (  -0.3535534  -0.3535534   0.3535534), wk =   0.5000000
        k(    3) = (  -0.7071068   0.0000000   0.0000000), wk =   0.3750000

                       cryst. coord.
        k(    1) = (   0.0000000   0.0000000   0.0000000), wk =   0.1250000
        k(    2) = (   0.0000000   0.0000000  -0.5000000), wk =   0.5000000
        k(    3) = (   0.0000000  -0.5000000  -0.5000000), wk =   0.3750000

     Dense  grid:    10417 G-vectors     FFT dimensions: (  32,  32,  32)

     Dynamical RAM for                 wfc:       1.03 MB

     Dynamical RAM for     wfc (w. buffer):       4.13 MB

     Dynamical RAM for           str. fact:       0.32 MB

     Dynamical RAM for           local pot:       0.00 MB

     Dynamical RAM for          nlocal pot:       1.35 MB

     Dynamical RAM for                qrad:       5.32 MB

     Dynamical RAM for          rho,v,vnew:       4.91 MB

     Dynamical RAM for               rhoin:       1.64 MB

     Dynamical RAM for            rho*nmix:      10.17 MB

     Dynamical RAM for           G-vectors:       0.68 MB

     Dynamical RAM for          h,s,v(r/c):       0.12 MB

     Dynamical RAM for          <psi|beta>:       0.05 MB

     Dynamical RAM for                 psi:       2.07 MB

     Dynamical RAM for                hpsi:       2.07 MB

     Dynamical RAM for      wfcinit/wfcrot:       1.57 MB

     Estimated static dynamical RAM per process >      20.82 MB

     Estimated max dynamical RAM per process >      35.30 MB

     Initial potential from superposition of free atoms

     starting charge      17.8921, renormalised to      18.0000

     negative rho (up, down):  1.776E-04 0.000E+00
     Starting wfcs are random

     total cpu time spent up to now is        0.6 secs

     per-process dynamical memory:    24.6 Mb

     Self-consistent Calculation

     iteration #  1     ecut=    40.00 Ry     beta= 0.70
     Davidson diagonalization with overlap

---- Real-time Memory Report at c_bands before calling an iterative solver
            66 MiB given to the printing process from OS
            26 MiB allocation reported by mallinfo(arena+hblkhd)
         19626 MiB available memory on the node where the printing process lives
------------------
     ethr =  1.00E-02,  avg # of iterations = 11.7

     negative rho (up, down):  5.294E-05 0.000E+00

     total cpu time spent up to now is        1.4 secs

     total energy              =    -142.36152776 Ry
     estimated scf accuracy    <       0.49405045 Ry

     iteration #  2     ecut=    40.00 Ry     beta= 0.70
     Davidson diagonalization with overlap

---- Real-time Memory Report at c_bands before calling an iterative solver
            80 MiB given to the printing process from OS
            39 MiB allocation reported by mallinfo(arena+hblkhd)
         19613 MiB available memory on the node where the printing process lives
------------------
     ethr =  2.74E-03,  avg # of iterations =  2.3

     negative rho (up, down):  2.570E-05 0.000E+00

     total cpu time spent up to now is        1.6 secs

     total energy              =    -142.48521898 Ry
     estimated scf accuracy    <       0.10852609 Ry

     iteration #  3     ecut=    40.00 Ry     beta= 0.70
     Davidson diagonalization with overlap

---- Real-time Memory Report at c_bands before calling an iterative solver
            81 MiB given to the printing process from OS
            40 MiB allocation reported by mallinfo(arena+hblkhd)
         19612 MiB available memory on the node where the printing process lives
------------------
     ethr =  6.03E-04,  avg # of iterations =  3.7

     negative rho (up, down):  7.913E-06 0.000E+00

     total cpu time spent up to now is        1.9 secs

     total energy              =    -142.51158940 Ry
     estimated scf accuracy    <       0.00564411 Ry

     iteration #  4     ecut=    40.00 Ry     beta= 0.70
     Davidson diagonalization with overlap

---- Real-time Memory Report at c_bands before calling an iterative solver
            83 MiB given to the printing process from OS
            41 MiB allocation reported by mallinfo(arena+hblkhd)
         19610 MiB available memory on the node where the printing process lives
------------------
     ethr =  3.14E-05,  avg # of iterations =  3.3

     negative rho (up, down):  8.897E-08 0.000E+00

     total cpu time spent up to now is        2.2 secs

     total energy              =    -142.51240031 Ry
     estimated scf accuracy    <       0.00017402 Ry

     iteration #  5     ecut=    40.00 Ry     beta= 0.70
     Davidson diagonalization with overlap

---- Real-time Memory Report at c_bands before calling an iterative solver
            84 MiB given to the printing process from OS
            42 MiB allocation reported by mallinfo(arena+hblkhd)
         19609 MiB available memory on the node where the printing process lives
------------------
     ethr =  9.67E-07,  avg # of iterations =  4.3

     total cpu time spent up to now is        2.4 secs

     total energy              =    -142.51241220 Ry
     estimated scf accuracy    <       0.00000481 Ry

     iteration #  6     ecut=    40.00 Ry     beta= 0.70
     Davidson diagonalization with overlap

---- Real-time Memory Report at c_bands before calling an iterative solver
            85 MiB given to the printing process from OS
            44 MiB allocation reported by mallinfo(arena+hblkhd)
         19605 MiB available memory on the node where the printing process lives
------------------
     ethr =  2.67E-08,  avg # of iterations =  2.3

     total cpu time spent up to now is        2.7 secs

     total energy              =    -142.51241331 Ry
     estimated scf accuracy    <       0.00000013 Ry

     iteration #  7     ecut=    40.00 Ry     beta= 0.70
     Davidson diagonalization with overlap

---- Real-time Memory Report at c_bands before calling an iterative solver
            87 MiB given to the printing process from OS
            45 MiB allocation reported by mallinfo(arena+hblkhd)
         19605 MiB available memory on the node where the printing process lives
------------------
     ethr =  7.11E-10,  avg # of iterations =  2.0

     total cpu time spent up to now is        3.0 secs

     total energy              =    -142.51241335 Ry
     estimated scf accuracy    <          4.8E-09 Ry

     iteration #  8     ecut=    40.00 Ry     beta= 0.70
     Davidson diagonalization with overlap

---- Real-time Memory Report at c_bands before calling an iterative solver
            88 MiB given to the printing process from OS
            46 MiB allocation reported by mallinfo(arena+hblkhd)
         19601 MiB available memory on the node where the printing process lives
------------------
     ethr =  2.68E-11,  avg # of iterations =  2.7

     total cpu time spent up to now is        3.2 secs

     total energy              =    -142.51241335 Ry
     estimated scf accuracy    <          1.1E-09 Ry

     iteration #  9     ecut=    40.00 Ry     beta= 0.70
     Davidson diagonalization with overlap

---- Real-time Memory Report at c_bands before calling an iterative solver
            89 MiB given to the printing process from OS
            47 MiB allocation reported by mallinfo(arena+hblkhd)
         19601 MiB available memory on the node where the printing process lives
------------------
     ethr =  6.25E-12,  avg # of iterations =  2.0

     total cpu time spent up to now is        3.5 secs

     End of self-consistent calculation

          k = 0.0000 0.0000 0.0000 (  1291 PWs)   bands (ev):

    -8.8845  -8.8845  -8.8845  -8.8845  -8.4695  -8.4695  -8.4167  -8.4167
    -8.4167  -8.4167  -5.1768  -5.1768   7.4080   7.4080   7.7440   7.7440
     7.7440   7.7440   7.8674   7.8674  10.9187  10.9187  11.1147  11.1147
    11.1147  11.1147

     occupation numbers 
     1.0000   1.0000   1.0000   1.0000   1.0000   1.0000   1.0000   1.0000
     1.0000   1.0000   1.0000   1.0000   1.0000   1.0000   0.8677   0.8677
     0.8677   0.8677   0.2645   0.2645   0.0000   0.0000   0.0000   0.0000
     0.0000   0.0000

          k =-0.3536-0.3536 0.3536 (  1308 PWs)   bands (ev):

    -9.0860  -9.0860  -8.9610  -8.9610  -8.6738  -8.6738  -8.5087  -8.5087
    -8.4380  -8.4380  -3.3818  -3.3818   0.7393   0.7393   6.2920   6.2920
     6.4980   6.4980   8.3690   8.3690  12.0151  12.0151  12.1059  12.1059
    15.3431  15.3431

     occupation numbers 
     1.0000   1.0000   1.0000   1.0000   1.0000   1.0000   1.0000   1.0000
     1.0000   1.0000   1.0000   1.0000   1.0000   1.0000   1.0000   1.0000
     1.0000   1.0000   0.0000   0.0000   0.0000   0.0000   0.0000   0.0000
     0.0000   0.0000

          k =-0.7071 0.0000 0.0000 (  1298 PWs)   bands (ev):

    -9.0945  -9.0945  -8.9082  -8.9082  -8.5518  -8.5518  -8.4684  -8.4684
    -8.3948  -8.3948  -2.5820  -2.5820   0.4751   0.4751   4.7757   4.7757
     4.8500   4.8500   8.9419   8.9419   9.1067   9.1067  17.5352  17.5353
    17.5759  17.5759

     occupation numbers 
     1.0000   1.0000   1.0000   1.0000   1.0000   1.0000   1.0000   1.0000
     1.0000   1.0000   1.0000   1.0000   1.0000   1.0000   1.0000   1.0000
     1.0000   1.0000   0.0000   0.0000   0.0000   0.0000   0.0000   0.0000
     0.0000   0.0000

     the Fermi energy is     7.8229 ev

!    total energy              =    -142.51241335 Ry
     estimated scf accuracy    <          7.6E-12 Ry
     smearing contrib. (-TS)   =      -0.00098152 Ry
     internal energy E=F+TS    =    -142.51143184 Ry

     The total energy is F=E-TS. E is the sum of the following terms:
     one-electron contribution =     -79.27643351 Ry
     hartree contribution      =      50.84530440 Ry
     xc contribution           =     -21.05867011 Ry
     ewald contribution        =     -93.02163261 Ry

     convergence has been achieved in   9 iterations

     Writing all to output data dir ./tmp/gaas_so_ci.save/ :
     XML data file, charge density, pseudopotentials, collected wavefunctions

     init_run     :      2.34s CPU      0.59s WALL (       1 calls)
     electrons    :     20.74s CPU      2.88s WALL (       1 calls)

     Called by init_run:
     wfcinit      :      1.60s CPU      0.27s WALL (       1 calls)
     wfcinit:wfcr :      1.48s CPU      0.26s WALL (       3 calls)
     potinit      :      0.14s CPU      0.03s WALL (       1 calls)
     hinit0       :      0.60s CPU      0.28s WALL (       1 calls)

     Called by electrons:
     c_bands      :     17.94s CPU      2.52s WALL (       9 calls)
     sum_band     :      2.01s CPU      0.26s WALL (       9 calls)
     v_of_rho     :      0.28s CPU      0.04s WALL (      10 calls)
     v_h          :      0.02s CPU      0.00s WALL (      10 calls)
     v_xc         :      0.27s CPU      0.03s WALL (      10 calls)
     mix_rho      :      0.41s CPU      0.05s WALL (       9 calls)

     Called by c_bands:
     init_us_2    :      0.42s CPU      0.05s WALL (      57 calls)
     cegterg      :     14.91s CPU      1.94s WALL (      27 calls)

     Called by sum_band:
     sum_band:wei :      0.00s CPU      0.00s WALL (       9 calls)
     sum_band:loo :      1.88s CPU      0.24s WALL (       9 calls)
     sum_band:buf :      0.03s CPU      0.00s WALL (      27 calls)
     sum_band:ini :      0.19s CPU      0.03s WALL (      27 calls)

     Called by *egterg:
     cdiaghg      :      0.75s CPU      0.10s WALL (     130 calls)
     cegterg:over :      0.46s CPU      0.06s WALL (     103 calls)
     cegterg:upda :      0.21s CPU      0.03s WALL (     103 calls)
     cegterg:last :      0.43s CPU      0.06s WALL (      77 calls)
     h_psi        :     13.99s CPU      1.89s WALL (     133 calls)
     g_psi        :      0.25s CPU      0.03s WALL (     103 calls)

     Called by h_psi:
     h_psi:calbec :      0.44s CPU      0.07s WALL (     133 calls)
     vloc_psi     :     12.63s CPU      1.70s WALL (     133 calls)
                                        0.00s GPU  (     133 calls)
     add_vuspsi   :      0.80s CPU      0.10s WALL (     133 calls)

     General routines
     calbec       :      0.44s CPU      0.07s WALL (     133 calls)
     fft          :      0.62s CPU      0.23s WALL (     153 calls)
     ffts         :      0.02s CPU      0.01s WALL (      36 calls)
     fftw         :      9.95s CPU      1.38s WALL (   11100 calls)

     Parallel routines

     PWSCF        :     23.18s CPU      3.51s WALL


   This run was terminated on:   9:25:38   7Jul2026            

=------------------------------------------------------------------------------=
   JOB DONE.
=------------------------------------------------------------------------------=
